# vtk DataFile Version 3.0
vtk output
ASCII
DATASET POLYDATA
POINTS 5568 float
9.12455866494008 0.07561375774704618 -23.33832306194189
8.256199636131583 0.09228627559140981 -21.836436918283162
7.74819288793837 0.12144694803211538 -21.06651124827855
7.243478411382806 0.14268609764714865 -20.293889430434866
6.730755879652333 0.15993236940786282 -19.52614398923542
6.213250066983549 0.17670237281796347 -18.760095353260756
5.695481745294508 0.19245238553123561 -17.992537966641986
5.177733995930303 0.20699037202510984 -17.223920167205968
4.66232559541271 0.22039116137788328 -16.453838003872256
4.149258981383436 0.23508720898968172 -15.684314939793044
3.6372884898187 0.25082906056406173 -14.916333963430011
3.1260794175750237 0.2673918491441691 -14.148401694164775
2.616395549165051 0.28845340327947366 -13.379296832368738
2.1102603131800595 0.31487316077070004 -12.607739842964977
1.6069326693821178 0.3482932115320127 -11.833823308959849
1.1069246096549206 0.3912514469109021 -11.060218434926087
0.6124804839324824 0.4409106521225533 -10.28672573857663
0.11716425289855692 0.4925503392040924 -9.513865018048545
-0.3885073185714384 0.5515316905786699 -8.74503727712646
-0.9144393798100139 0.6180692230672313 -7.987242200371783
-1.4632446056885897 0.6824636970464314 -7.248442209844002
-2.0123783200898977 0.721741992735738 -6.531975725245488
-2.5170638411424324 0.7134724775991584 -5.799957881148821
-2.9016625493804074 0.6155042046822857 -5.04045438946466
-3.1065950759698455 0.4185198736997547 -4.279809765821563
-3.1690822259627507 0.16298951722532495 -3.5160201137094784
-3.146036384997434 -0.10956757048861016 -2.753453520205621
-3.076595913349553 -0.3729469411631975 -1.9814914640006118
-2.988381784937148 -0.5893224872281322 -1.18858703398176
-2.8965973725494623 -0.7327086581101002 -0.3907144242895101
-2.8127490547272602 -0.7831394100732627 0.4029020588793564
-2.7487595480667273 -0.6988928478308615 1.1522912884956185
-2.7003553735106713 -0.4891408477845744 1.8183648526254061
-2.6572413082567032 -0.17199295843819162 2.388199367888367
-2.622734129447769 0.23416449081872326 2.8344058797547964
-2.5927120119698763 0.721092473824757 3.2209547594960606
-2.5636695247767074 1.285774203949715 3.5649278818253376
-2.535118494893901 1.9202675586906848 3.897095783500165
-2.5250558004132806 2.5937189279164277 4.251673099159359
-2.594005847495375 3.1748239396632987 4.653131356011109
-2.7444214522260846 3.529918441818212 5.087275673564992
-2.9441005507061853 3.653755715682955 5.539101112480414
-3.138331598477371 3.580655693362421 5.968781174990728
-3.307510833636639 3.2019392593018057 6.321770893468532
-3.4256455648109303 2.596443692591375 6.613281227939424
-3.460669039906039 1.8430176786189243 6.8406115095584115
-3.393641888338163 1.0002447146856464 7.005711057876575
-3.2286589192329815 0.14458952962498073 7.119795052408912
-2.9683283452539535 -0.6713827841758616 7.220126685457906
-2.6117312600700284 -1.4134441484708598 7.331718186425272
-2.1634433849746255 -2.063877610538088 7.464589007654739
-1.628007720508322 -2.6108715129845983 7.633047987365643
-1.0211013749166964 -3.0280918016643144 7.856801667330599
-0.3660289802641459 -3.3151812701844396 8.14366999181881
0.32347250876759837 -3.495128418034807 8.489571400734153
1.0515024077789588 -3.5791142577776447 8.88432673306727
1.814179267406007 -3.576054916033295 9.310359393291323
2.606480589950645 -3.497048698689531 9.736086299210982
3.4197553264592426 -3.3470981437581355 10.126988589772616
4.242854244615757 -3.13000907310227 10.458026654429158
5.089298560727154 -2.8395170199837803 10.720341077192181
5.9912147810329 -2.4524583732711744 10.907243820888434
6.935014644647662 -1.952940303593891 10.994964133662105
7.822217913319315 -1.3739764347249228 10.98091763258482
9.130579327710148 0.14030980340103416 -23.291659290706402
8.287683048302315 0.15876802635796067 -21.817804844553255
7.780721057038018 0.18135294694779264 -21.04768602506564
7.272298626873342 0.1976419919258452 -20.279079980471916
6.751989194278962 0.2127483575356481 -19.51929599870474
6.226207551969072 0.2303383529765453 -18.76259598631902
5.699909239843358 0.24738374013496076 -18.005112185766606
5.173442132034295 0.26210470848200185 -17.247359458153827
4.648433526005406 0.27443576012225923 -16.489391821192207
4.12522551448982 0.2871654337327616 -15.73200455795738
3.6036037991191145 0.3004509952412407 -14.975040654255093
3.0838464794473044 0.3151119071160232 -14.21670695796065
2.56651683082034 0.3356027546494694 -13.455868382632323
2.0526334081596396 0.36204294952176624 -12.692083231888214
1.5419480730201838 0.39498392174175484 -11.925015868884817
1.0362672722997668 0.4358947428199267 -11.156413887102655
0.5380873744446164 0.48215786267385913 -10.3868106454985
0.040156097857369843 0.5314516439206319 -9.618185268050887
-0.4691633052449141 0.5886898044373632 -8.854358742461827
-0.9978644727121245 0.6523788561583591 -8.098436100641862
-1.5436665240845393 0.7045978543051044 -7.3546652169103615
-2.0635828265084744 0.7041716228822893 -6.637687893415894
-2.5227256794174204 0.6511790169437496 -5.907940668822872
-2.8632072252598673 0.5304139933955457 -5.148636432926595
-3.0444137742501223 0.3345687392014067 -4.373340064133027
-3.0950787935572954 0.09223847422005113 -3.5825050777468532
-3.0678472822239704 -0.15830895517487667 -2.788534798887458
-3.0028806624355973 -0.39291608476668705 -1.9897211594456592
-2.9264189036436115 -0.5815462300364717 -1.1770105718948285
-2.8533506938639084 -0.7046430303745899 -0.3659248074379384
-2.794714734993163 -0.7422899213378538 0.43485305736328106
-2.76102013225888 -0.6557230760189787 1.200488708726672
-2.7444055006388584 -0.4437661751894936 1.8952676264058868
-2.735448423558686 -0.12207273217155917 2.469832743581322
-2.731802128534808 0.2937894217858432 2.91908010872121
-2.725037154442797 0.7993298878677428 3.303759987886998
-2.706047978549057 1.390771127091651 3.642673213854922
-2.6684461790615157 2.0615227769892948 3.9745946311486002
-2.6393713476772196 2.752599266540857 4.339734241022607
-2.6949038364401092 3.2823158616518606 4.7326383185937475
-2.8088311701313313 3.6102016217209587 5.151201722655312
-2.9426529030985655 3.699748796288341 5.518143330664249
-3.056136835394302 3.604099298067504 5.910340414143045
-3.169508463052431 3.2324321980081145 6.237363385568633
-3.248751657539742 2.625115048862285 6.516053563915811
-3.260208824172811 1.8662772600312982 6.73657866825578
-3.1902938343853524 1.0207053644454338 6.89873698508646
-3.0368716288478246 0.16118077038805578 7.017856083148257
-2.796562107709247 -0.6627059975379014 7.125021639875556
-2.4673057951864625 -1.4172796258922942 7.244869402343675
-2.0573469482008617 -2.0812048937875236 7.386495559923924
-1.5676258898038709 -2.647152923485903 7.562952672610492
-1.002865753456507 -3.092953184321571 7.794765230875987
-0.3757803784639894 -3.407766425346085 8.09316546802092
0.2947298345312619 -3.602468314762934 8.45125724196977
1.0124492082671015 -3.6883593063938425 8.858930599779784
1.7660841796770295 -3.6789201488258776 9.296075790542005
2.553347561145502 -3.583177598380649 9.731918286113835
3.359768912392869 -3.40789716608815 10.131164340007118
4.185911322848326 -3.1545399602881474 10.474743106291518
5.038762326571319 -2.817785126331526 10.749312919341474
5.952444898446595 -2.37359693705829 10.951438717543303
6.900170889012858 -1.8152017300771393 11.054163228961846
7.7830218723311315 -1.1980226416859887 11.051522199891243
9.129855153306394 0.1325280653971143 -23.2972720795308
8.283915769644954 0.15077372865146443 -21.820061502334863
7.776829531223698 0.174149301456745 -21.049968007278423
7.268854420771952 0.19103329567759897 -20.28088172384146
6.749460300751106 0.20639664818985598 -19.520146756813553
6.224677318456222 0.2238880001592797 -18.762330626132822
5.699408456309573 0.2407776694694472 -18.003644587232472
5.173993634693694 0.2554765162505076 -17.244595479980113
4.650143976126973 0.2679357939145481 -16.48518369145236
4.128160565304478 0.2809013113404613 -15.726350398193034
3.607704125251887 0.29448162234531083 -14.968073158271533
3.0889784020159903 0.3093708026940108 -14.208593972836804
2.5725710161089026 0.3299300602425381 -13.446767908119293
2.0596222057908777 0.35636761288827307 -12.682054318505793
1.5498242237421822 0.3893659640206663 -11.914168419785948
1.0448272298859678 0.43052275991984307 -11.14496786562505
0.5470975426893625 0.47719397730104673 -10.374898928588095
0.04948117085448439 0.5267695508077165 -9.605765760769838
-0.45939886882723674 0.584217037773913 -8.841339938720326
-0.9877663590332437 0.6482486076830669 -8.08519299482067
-1.5339238261953319 0.7019325011583606 -7.342028672713645
-2.05725559869093 0.7062395327721503 -6.625205414173067
-2.5217061497030455 0.6585685206691834 -5.895347052075315
-2.8673969501913934 0.5405409078951133 -5.136135805388389
-3.051459488942037 0.34456869011760527 -4.362651250642977
-3.103560921451286 0.10064026775562257 -3.575130057896908
-3.0768405191444526 -0.15257333677907725 -2.7850265188737473
-3.011336882969375 -0.3906504596482552 -1.9895419708780793
-2.933459730556787 -0.5826214291230598 -1.1792963154857938
-2.858135880253251 -0.7081605539993523 -0.36986019816136273
-2.796464557843566 -0.7473459821814773 0.4300001465699088
-2.759098595583311 -0.6610673380722617 1.1936052917333537
-2.7385987579090134 -0.4493968359579811 1.884819576728013
-2.725521359290699 -0.1282981220034023 2.458731294061099
-2.7181430193916234 0.286333235862515 2.907549260006342
-2.7085561954372235 0.7895718432629206 3.2924231632470398
-2.6883423449820016 1.3777358120218328 3.631943808197817
-2.6518499282782653 2.044053452125048 3.963902024559529
-2.6250896948832767 2.7329771676427272 4.327752049917844
-2.682190540630505 3.2687188842120345 4.721676773534716
-2.8003756722922883 3.5997676440133337 5.142040072568223
-2.9414979437310587 3.6931409736759893 5.518635722590717
-3.0640364366229145 3.6001438891865307 5.914705787435848
-3.183873924728821 3.2277883156713956 6.244638818359858
-3.2677514600400075 2.620797750034381 6.524811383733127
[...]
CELL_DATA 87
SCALARS quad_param_group int 1
LOOKUP_TABLE default
3
1
1
1
2
2
1
3
3
3
3
0
0
2
2
2
0
1
0
3
1
3
1
0
3
0
3
1
1
0
3
1
2
3
1
2
2
0
0
0
0
0
1
1
1
2
2
1
3
3
2
2
1
1
3
3
3
0
3
1
3
2
2
2
3
3
3
1
0
2
3
3
0
0
1
3
3
2
2
2
2
2
0
0
0
1
3
SCALARS single_component_feature float 1
LOOKUP_TABLE default
-0.010355782322283808
0.00557660508255977
0.0036602334819748894
-0.012512467418738332
0.003666589038558255
0.015802094966720907
-0.04218050808000812
-0.007306819238796235
-0.007236724965290618
0.017778123820889516
0.03767897858155564
-0.030560008482775788
0.012367497063083096
0.04322156206181477
0.0017919317966106976
0.013966601220068126
0.007058576593960036
-0.025969808488696268
-0.003949032452311083
0.023778913433829936
0.040250626368766154
0.05267171532496505
0.014333143088254525
-0.04444523779488103
-0.03566821589406635
-0.021002695692274403
-0.01904643388095931
-0.036361499678730716
0.024723846445733447
-0.008159557107525792
0.008835945580452413
-0.012007730440406428
-0.010493970278825572
-0.025197585553633897
-0.00293139086123978
-0.03907629278831691
-0.0311145668407797
0.017084314463504308
-0.0022283216486609844
-0.027356388736980295
0.06400192187753304
0.041029735974228126
0.023704802841974033
0.026136811075370067
0.013357570705092098
-0.0357470807564199
-0.027649514868174515
0.010919278557037074
-0.020198334689455644
0.005863978886667168
-0.009757693628933145
-0.038753173997337555
-0.00037365107105559806
0.017449723917202516
-0.01459484719456237
-0.012990750334077067
-0.009948302904859131
-0.01058711448363676
0.030640392153542917
-0.029632377978258843
-0.0010270680763806682
0.03779000147268129
0.02477054497826437
-0.022764068221717143
-0.009398701457842183
-0.01665154943914276
0.08277364497043455
0.02550194026080701
-0.0408294716986275
0.01799117707207553
0.03579591099353809
-0.036463724897902734
0.013331119170599606
-0.039853105667938774
0.010685250428797397
0.024221119386012437
-0.032084482878094386
-0.027547571276134372
0.010918961340209997
0.06133759639532389
0.05776950820757444
-0.0500393444176547
-0.04476275129498513
0.010024684181328462
0.012215528331328062
0.0023437610337953326
-0.0180065427453468
POINT_DATA 5568
SCALARS single_curvature float 1
LOOKUP_TABLE default
0.03765406142242012
0.0390961416406658
0.007422433789341362
0.005183935019682746
0.003065734400350869
0.002236832041146813
0.0021986696237917187
0.0021020746316829124
0.0026681157618692664
0.00406937255816022
0.006058634197156279
0.008689172163049475
0.009701717583928912
0.008351820616227405
0.009875196795540293
0.01398263446959416
0.020273986853193697
0.028175210667511802
0.04514089381700613
0.08935326167096194
0.15694425987108193
0.20558338332687223
0.217330225489155
0.18485137736246454
0.12860310241173362
0.09749726175728582
0.10061556670281616
0.14339465569661264
0.19622076790878884
0.24845907716341128
0.3091671019300599
0.310635651565774
0.28304746374297424
0.2255968189744053
0.13486492547239876
0.13353172103243743
0.251089191650103
0.4327887730055646
0.5866581203055307
0.6876002371490598
0.6472860590799796
0.535657399599339
0.398812653323898
0.22148020601758825
0.16520062434396438
0.153769580692256
0.16246675800105623
0.18357929974850537
0.21418475661201464
0.23364039023733874
0.23218016601339578
0.21384344716122006
0.1772474725683728
0.13736978628115298
0.11269305256059489
0.1023281703616353
0.10247277148993403
0.10771653011003161
0.11259016397985881
0.11682147203689017
0.08831567570622804
0.05980987937556592
0.0313040830449038
0.0027982867142416767
0.03828436101653958
0.04026060187150168
0.008464021424810245
0.007201655314657892
0.003628871842073861
0.0020110990635533016
0.0022039815203704098
0.002315532913588709
0.0035051126710015203
0.005339002969253837
0.007293024545241843
0.00928893281362161
0.009904572190639945
0.008628987351837822
0.01057699742567002
0.01401585529097392
0.018408887314389704
0.034345308523381364
0.05660056212050997
0.09936462553798193
0.1571261662776854
0.18946894769011402
0.19094604917702823
0.15747996850806759
0.11013472560399071
0.08397428570298178
0.08908422049221568
0.1283401878161914
0.17668664914593854
0.23917124605466805
0.30370230862333814
0.3136651631368733
0.2933750730519029
0.22865206164217167
0.1379886890312379
0.1582610582757089
0.27013805745239927
0.5435219392168319
0.6927589558780878
0.7590566701101642
0.7242040641038703
0.5461092192746329
0.37558871219442586
0.1951381442738623
0.14354927252961502
0.1354512056713555
0.14747524076114993
0.17222919219750996
0.20608590755806155
0.23272964892976583
0.24026629616403614
0.2282043755556563
0.1945752514490975
0.15377867026966816
0.125078205861553
0.11072517563547293
0.10845969456519255
0.10935920036721143
0.11063511929674115
0.11203288745422738
0.08327979413957733
0.05452670082492728
0.025773607510277227
-0.0029794858043728223
0.038071595887451654
0.03996541053680348
0.008214553977727038
0.006914087180662269
0.003514130022676573
0.0020063363084010305
0.0021584198486740203
0.0022465477076349413
0.003379670188995481
0.005164504643347692
0.007137769453739162
0.009199864074812594
0.009853117376711264
0.008563067083326891
0.010461785864358739
0.01399422085237194
0.018544004985474878
0.03329430973337348
0.054892168131543705
0.09781525688995939
0.1567912907183793
0.19127808993761153
0.19399313429888737
0.1606329751105946
0.11224437963459809
0.08551412780559586
0.09040401465029324
0.13009701104189808
0.17898672149711936
0.24028355996016432
0.30440607214051313
0.3133683731291247
0.29217584682244446
0.22812498517507265
0.13699006088178206
0.15430355950805602
0.2670814863294018
0.5278310338144728
0.6797098882000121
0.7501516635018805
0.7144261914417791
0.5456029037302065
0.37833752717909963
0.1982534014651233
0.14611327564733506
0.1376478616480112
0.1493261618069305
0.17368708362555477
0.20718637486858368
0.23295795863127094
0.2393646264619228
0.22649873616972804
0.1924740300774331
0.151786879836616
0.1235884441569007
0.10973352691672417
0.1077717259470199
0.1091927862088094
0.1109014099248913
0.1126149740229813
0.08387931378213191
0.05514365354128252
0.026407993300433127
-0.0023276669404162648
0.03774599606975544
0.03915144342626317
0.007444665929947053
0.0049989534565108755
0.003065222519342409
0.0023099346433709434
0.002263613688357177
0.002139735022759825
0.002598730124392106
0.003939086760887452
0.005910224203839403
0.008632197757840052
0.009713364509341465
0.008364531342055344
0.009827868612979391
0.014007792597679692
0.020634988920109995
0.027990512797286336
0.044279168437168274
0.08870180280292467
0.15759023956816995
0.20794481334343828
0.22106538604074208
0.188738836159844
0.13125020725199527
0.0994373389878919
0.1022584482357824
0.14549894857020987
0.19892469628680237
0.24971942254857
0.30983780755098406
0.31013069247469943
0.28160184119451115
0.22544711463902076
0.13543549344550634
0.13166549633183947
0.24966297993516356
0.42112465145277195
0.5729664175727931
0.678471575123624
0.6377401542904003
0.5335224041858834
0.4019338089450983
0.22509556063252054
0.16818020416328378
0.1562522573691326
0.16442130535434654
0.1849755111734428
0.21509341734974843
0.23359028905162352
0.23098559049941114
0.21187368731562709
0.17493301868293612
0.13517957953168389
0.11101996055270708
0.10116743455657079
0.10161776255679442
0.10744963322070995
0.11280861266948702
0.11745891936017283
0.08900441799806336
0.06054991663595388
0.03209541527384441
0.003640913911734933
0.03807223554568327
0.03996631753416583
0.008215321201017978
0.006915024347707823
0.0035144906000324693
0.002006335933103941
0.0021585524387898766
0.0022467586463670456
0.003380077007182422
0.005165076348392803
0.0071382821899839775
0.009200151765771422
0.009853275939772126
0.0085632717981431
0.010462154863233175
0.01399428564732962
0.018543510820289717
0.03329768766129299
0.05489771908632719
0.09782027158937173
0.15679229606687467
0.1912720296316431
0.19398296611086985
0.1606224497727957
0.11223732833882799
0.0855089771868678
0.09039960280952848
0.13009115696088644
0.1789790677303185
0.2402798677844238
0.30440375868414327
0.3133693887705117
0.29217984721763174
0.22812667211763055
0.1369931568733305
0.15431629596406454
0.26709132707937183
0.5278820197730113
0.679753098141013
0.7501810764633147
0.7144584051722318
0.5456050275096209
0.37832836570610845
0.19824303795162443
0.14610475119177133
0.13764057151298825
0.14932004330388257
0.17368228876097663
0.20718278090405562
0.2329572546412334
0.2393676494964911
0.22650440408775252
0.19248099268156585
0.15179347853744984
0.12359338570316694
0.10973682461162153
0.10777402258870764
0.10919335233470306
0.1109005405403186
0.11261304581428229
0.08387732219867165
0.055141598583061016
0.02640587496745038
-0.002329848648160257
0.04003301885916814
0.04249747716585661
0.010373071511498383
0.008908553739484348
0.004449831277268085
0.0022356697056206323
0.0026198428698229457
0.0028511541953204593
0.004263789064476424
0.006320949536138787
0.00814080860504288
0.009842067481947433
0.010298883786216913
0.009115215959820526
0.011317937837937336
0.014194751015976918
0.01818968596628605
0.040933668118625824
0.06674752700802854
0.10877001581988881
0.15984848634983304
0.18045107399052351
0.17537911000499093
0.14140980906194545
0.0994765442727664
0.07624902469491036
0.08243960429949308
0.11927871549340216
0.1647057848252348
0.2332784302412943
0.2997414376045814
0.314922502252121
0.2995065700343943
0.23197177613462086
0.1449295566507933
0.18284462721051647
0.2890422385808163
0.6373194531152686
0.7626539376245028
0.8077399691974306
0.7784647079681062
0.5433892779720969
0.3616136802060604
0.17891714965095987
0.13011320994930697
0.12380251394608598
0.1374098655085162
0.1640576499788954
0.19966102484433076
0.2309752957825575
0.24474033663459466
0.23717937402534447
0.20583395527090664
0.16446802604332217
0.1330121454649643
0.11592009602953422
0.1119734572746982
0.1101013511502354
0.10907699797239699
0.10890829370134682
0.08011867906103798
0.05132906442072914
0.0225394497804203
-0.006250164859888538
0.04297162218141833
0.044939105160861935
0.011465641236087391
0.006163816664336118
0.004976081573207048
0.004176988672692303
0.004223881138099942
0.004454124336876699
0.0034267370071363744
0.003925041472661125
0.005500568174216598
0.0084936207568888
0.010684714174116556
0.009776855796596231
0.010357255686189119
0.015213504944860838
0.02715580364347558
0.042304334002309464
0.05074173653872303
0.09794018766298387
0.18456438951515533
0.2442607656461479
0.2750813988049571
0.24533056592498642
0.17023008315407004
0.1277318425277987
0.12586615891976477
0.17525142548690775
0.23669426265571614
0.26684030072427944
0.317297809288398
0.3011954008550562
0.26171003023399253
0.23042667478506879
0.15851499485943926
0.1305631419622613
0.24684344439709965
0.315056020224818
0.41488737791117336
0.5711735494596132
0.5318004185853686
0.503979002596921
0.4396862334851419
0.2743356172897637
0.20978717999172003
0.1900994145401708
0.18918727322374818
0.20055195363005557
0.22296052815695522
0.22881821592673815
0.21249091634794334
0.1846599240994785
0.1443484931788589
0.10619473204887016
0.0883775997872977
0.08484767620819193
0.08898474142845408
0.10280647030363586
0.1146727381853795
0.12583582650462857
0.0984955091641452
0.07115519182366184
0.04381487448317847
0.016474557142695107
0.037589792568538165
0.039101309077162485
0.007453060058521928
0.005490599025686717
0.003100156302258152
0.0021500991904944582
0.0021322464812882098
0.00207717935305876
0.0027873235038824427
0.0042741854379856285
0.006280989034567813
0.008779425531281618
0.009700942365069257
0.00835518989596266
0.009962417470002831
0.013960479343380688
0.019801324936624495
0.028786586378509386
0.046727831197579776
0.09064608962134843
0.15639321672211343
0.20231582734444428
0.21210995300240476
0.1794234576479787
0.12491586838000235
0.09479391794484932
0.0983214008067359
0.14044298495379592
0.19241847820025765
0.24667727188084412
0.30819033371250626
0.3113120847355492
0.2850767621446265
0.22592407770744594
0.13444929774244443
0.1367482074581611
0.2535481602467508
0.4505464288277878
0.6063714437300208
0.7007599265135005
0.6611681460041153
0.5384960242797047
0.39436410074860995
0.21638057983718742
0.1610051792716237
0.15025893752989944
0.1596714515029233
0.18154677326495014
0.2128227044979911
0.23364059387757638
0.23382942914646088
0.2166196146893421
0.18053425113359992
0.1404803128310913
0.11506086830442544
0.10396022126321307
0.1036641191712132
0.10807602090575837
0.11226227219688843
0.1159153065924803
0.08734420366079991
0.05877310072911952
0.030201997797439137
0.0016308948657587502
0.037589242331328966
0.039102580908063726
0.007454627784064784
0.005498207598425496
0.0031013927923848076
0.002148334063907461
0.002131083958432797
0.00207697845290418
0.002790321993974735
0.004279143491892533
0.006286222539935377
0.008781634927509475
0.009701142938499878
0.008355556573890342
0.00996469760800356
0.013960147097978432
0.01979101044251714
0.028804863574272033
0.046768776215972065
0.09068033196841822
0.15638492047111774
0.20224169739972275
0.2119908060349408
0.1792996417835214
0.12483188526866362
0.09473234013600453
0.0982690770972119
0.14037546843042628
0.19233136759170083
0.24663631598986832
0.3081674872795295
0.31132711285372466
0.2851231873002196
0.22593316186945908
0.1344454673823268
0.1368305197076865
0.25361118564854496
0.4509728965527257
0.6068290905665805
0.7010657725646778
0.6614924259430732
0.5385582263081512
0.39426147491727953
0.21626354695734665
0.16090897584565422
0.1501782288727847
0.1596067553301612
0.18149924632517403
0.21279032940845644
0.2336396248940798
0.2338667928258487
0.2166833082435983
0.1806100040057678
0.1405520084315785
0.11511533134898465
0.10399761331913916
0.1036912634504096
0.10808403785214184
0.11225447271999242
0.1158944089861801
0.08732190435494282
0.058749399723705534
0.03017689509246825
0.0016043904612309673
0.04046831146308068
0.04303416361850205
0.010835969730450742
0.009271422845883623
0.004647602248107634
0.0023234574409521916
0.0027319394525927147
0.0029856633918325464
0.004429142616287719
0.006517194839591824
0.008307965854768798
0.00996368877318841
0.010397211608107497
0.00923347099927525
0.011483809755395135
0.014240067342958072
0.018246779815683196
0.042374439655369606
0.06888054916907324
0.11078407357754834
0.16053378634403653
0.17883593149090635
0.17251695842165363
0.13846304099680015
0.09754204100897573
0.07486144919222848
0.08124238308208258
0.11759516103841401
0.16245386692516667
0.2321499640851387
0.2989371271086865
0.3151010129263457
0.30063324091113347
0.23268505161495093
0.14647909550482585
0.18818431722871043
0.29313156055611805
0.6571616334062119
0.7761329712697485
0.8173716002975122
0.7893419789547401
0.5416396916121577
0.35909896650899503
0.17587819669708157
0.12757170867239245
0.12157072620165313
0.13543167238724552
0.162406837416698
0.19831630442019707
0.23053437054633366
0.2455391462870879
0.2388869660030378
0.20801553617692237
0.16654345587576425
0.13454091996792342
0.11690423710963921
0.11262128504926923
0.11021646237470979
0.10875010045251442
0.10830183148869649
0.07951601651484712
0.05073020154099775
0.02194438656714838
-0.006841428406700989
0.04586027879130369
0.04951885903261451
0.016255780053464244
0.013212327862976153
0.006979701681988346
0.003732862520968861
0.004297499020614946
0.004770169302081643
0.0064059539233295125
0.008549265049972722
0.010041467778188581
0.011422957174258213
0.011724751393858637
0.010784110875416968
0.013485847434944478
0.014839514853698988
0.020259593977591774
0.05895103684450766
0.09228385576046497
0.1335566589019912
0.16981305422678744
0.1650512587440218
0.14683311651337005
0.11218225179373824
0.08067000424682502
0.06318796620593012
0.07113994541283669
0.10214182481181067
0.14118866276832617
0.22105509759525763
0.290183673357461
0.31570652598902743
0.31072036672535536
0.24021515987812123
0.1634788893740066
0.25105789402534656
0.34143713772462775
0.8632643997332148
0.9059033945663452
0.9162284720617039
0.9027937831964099
0.49974049362285167
0.3389532042959555
0.1477971045528678
0.10335185377527081
0.09971951066593487
0.11507385208106989
0.14470533050418605
0.18313141656381124
0.22438507586506853
0.25241425584406507
0.2555235523253252
0.22996548087218724
0.1875385639148522
0.14980368672308392
0.12642392022485133
0.11856438008225766
0.11087302450574658
0.1050327823662781
0.10218392070743146
0.07362465792511198
0.04506539514279251
0.016506132360473033
-0.012053130421846442
0.0400539245107552
0.041603780459165664
0.009115173486718253
0.004896182629601213
0.003888966881493633
0.0033042618230430007
0.003293143012372719
0.003353771751238516
0.002854130261313166
0.0036811947500511207
0.005419155969671841
0.008382852908146422
0.010143383951974762
0.008971660844660228
0.009909926501197831
0.014561055494740906
0.02433372016124546
0.034770072586809614
0.04591348886806658
0.09208000886531159
0.1717212699669134
0.22923399734830072
0.25345654281266444
0.22258722079655302
0.15448023372488007
0.11638218974922197
0.11647717750803457
0.16349087498210044
0.22185477474869125
0.26021093469371764
0.31477619213416275
0.30510328580026647
0.2693926018453987
0.22693151839522835
0.14675774855797957
0.12642554281751825
0.24506669817307924
0.34682065253711974
0.46938043562678466
0.6089876895351807
0.5676639417225555
0.5147432475233423
0.42635306262218337
0.2552966807792905
0.19339791803669854
0.1769392555185941
0.17998137977836054
0.19526802678639976
0.22090227948495286
0.2315712667257804
0.22014920398818372
0.19528984207089498
0.15599842680008444
0.11725095222078011
0.09713148696421621
0.09129281037542271
0.0941023436111533
0.10482664993531049
0.11419433077162588
0.12265365538979794
0.09478971231833344
0.06692576924686894
0.039061826175404435
0.011197883103939932
0.039342520730186584
0.04163543342887422
0.009631916348357326
0.008301902528509021
0.004134320528370477
0.002118081818805332
0.0024492052242627523
0.0026410865499676387
0.003991810107618864
0.00598387157103741
0.007852701904225146
0.009641838309718983
0.010144560999400096
0.008927705250776541
0.01104642952170937
0.014123717240716272
0.018166613388283622
0.038550571463749635
0.06316272563381625
0.10541204334303664
0.15877341160348843
0.18335823147373806
0.180470904938486
0.14665866431593366
0.10293872742541682
0.0787456814090424
0.0845910444325852
0.12225954707198156
0.16867118166953654
0.2352485528535525
0.30110986348299656
0.3145621727482923
0.2975011826134997
0.2307774852082144
0.1423643258766681
0.17399277405368996
0.282252149989419
0.6040414793382803
0.7391767157658382
0.7911719103813439
0.7598565504978628
0.545430958634531
0.3661466762245662
0.184279716416866
0.13457591677730468
0.12769855943449168
0.14082408621930412
0.16687347064101585
0.2019205118057909
0.23166405465823114
0.2433011620077235
0.2341898974601064
0.20204543843546666
0.16086739085288207
0.13035099772436182
0.11419393846086022
0.1108231808333053
0.10987947971310946
0.10962563637452491
0.10996072027010959
0.08117281941210455
0.05238491855409952
0.023597017696094486
-0.005190883161910548
0.04758077889799673
0.051558584838998826
0.01788388139870667
0.014356754858712755
0.007683948422892538
0.004206688519889104
0.004809082524365065
0.00534140837230981
0.007009108106167701
0.009126464871342048
0.010538634133886733
0.011893981331541986
0.012184963200444638
0.011311203991894668
0.014129910683118176
0.015042373478752147
0.0211379846282429
0.06397154227613995
0.09909540347349699
0.14040286567222834
0.17308255453681173
0.1620703337216084
0.1408421178857787
0.10610855546480673
0.07689703484726067
0.0607764942220923
0.06905082723738708
0.0984006278442873
0.1357972127425806
0.21807538755178107
0.2875496511377061
0.31548617348755403
0.3130789771209994
0.24223303434748195
0.1683176713348952
0.27137520322323
0.35731973937883194
0.9108427031397872
0.9362658858741086
0.9415045775257695
0.9321214581232193
0.481582031982686
0.33535841334840466
0.14103511098746427
0.09718932599639353
0.09393821322419169
0.10931167000418746
0.1394963621017584
0.17844432601281193
0.22216683536848492
0.2539635317682774
0.2599589460145029
0.23603806527185794
0.1933945819912594
0.15399799983989915
0.12894074750382573