# vtk DataFile Version 3.0
vtk output
ASCII
DATASET POLYDATA
POINTS 5568 float
9.04114358892647 0.36721698504892714 -23.234965148651817
8.39112667376119 0.3008409731490689 -21.962903822130258
7.890792714519529 0.31436140785814626 -21.183483337941297
7.390028262256635 0.3210668047320881 -20.40432272305582
6.88036208714262 0.32846160005436825 -19.631436827917927
6.3649228319224065 0.33941068280567277 -18.861682745830397
5.848804354456611 0.3497118895708452 -18.09091522199974
5.330953161024871 0.3577511351879842 -17.319739105080618
4.810488563701691 0.3629966263956711 -16.54944414928322
4.286757614724186 0.36738996893903786 -15.78156858907861
3.761254433689379 0.36728237481037057 -15.015113343635795
3.2375229139064556 0.36292009510880824 -14.247594140871454
2.7165507769798523 0.35881592244525656 -13.477501656415152
2.2000421406146535 0.35859613135290797 -12.703625393922717
1.687477098748611 0.36186780368256427 -11.925842592003027
1.1786414388199438 0.36422077327811375 -11.146292833459619
0.6816249422623366 0.36343230508643537 -10.36315462131243
0.18883431510505627 0.3656564047342848 -9.57804319349534
-0.3134823445699744 0.3780691542527957 -8.796351834875052
-0.8362944802348884 0.40229551659511886 -8.024476792723592
-1.3892299760857916 0.43278760856910475 -7.275365272429811
-1.941415225218356 0.432181822904994 -6.559224160009478
-2.459082116507659 0.4023962983363712 -5.845928178287254
-2.9000060336253153 0.33604685234517223 -5.101666137195186
-3.223242355997411 0.22679950261351126 -4.280482541375168
-3.3933304025618467 0.07030594754560207 -3.394578096371259
-3.443788230478771 -0.10863543991394095 -2.5053327049529726
-3.409781127544622 -0.2896243389588759 -1.6437893407997013
-3.3165908423197505 -0.4480776707583271 -0.8203613327951487
-3.1971532895127326 -0.5567752710577691 -0.0370552901253427
-3.062091781282879 -0.5972004195878116 0.7104127793757576
-2.920350259422363 -0.5380496537712514 1.4335361695679252
-2.7686792645482465 -0.3612802810496668 2.1180592276421697
-2.641230339284347 -0.0619093718942853 2.694151616540752
-2.54637643121952 0.3259869806525161 3.1516381687201687
-2.466509253404924 0.8239433110970016 3.5462483839065824
-2.386337775668869 1.4300362505429622 3.8939989596529987
-2.307319894434154 2.1331419588872635 4.233343366303326
-2.2813215755525382 2.888590775217423 4.626449773972692
-2.420911791687004 3.370477797437286 5.027778741402553
-2.6442321227650574 3.573951606772219 5.375476356323512
-2.835834473900659 3.606935884868667 5.61344809536155
-3.012484006627455 3.571666170632434 5.896343428635668
-3.183602313893676 3.251732650989869 6.206179420142162
-3.3151410930636467 2.6505927386810586 6.497989878197225
-3.354462332515143 1.8720700524457705 6.741187273953277
-3.27484998091956 1.0158356227360854 6.936398845161899
-3.0864179038036945 0.1591480766100145 7.0978000331790785
-2.806504791863982 -0.6392504710021557 7.266301818301786
-2.4451895069429774 -1.3469188604627875 7.457565212391637
-2.0299187081342644 -1.9528127923520682 7.661042866146082
-1.5616976599067907 -2.4709310163033082 7.879195201935016
-1.044412036690351 -2.8921829840530333 8.12648670102209
-0.4730622859896568 -3.237126048721803 8.407122469952856
0.1749450722958792 -3.510584686610507 8.732834121302805
0.9010135092139347 -3.6916043099318667 9.108453718206645
1.6814525861584937 -3.7766477783495156 9.520142550730913
2.5119278862206613 -3.76323987521815 9.93729044240474
3.36489285639478 -3.6448247948195345 10.315330645144353
4.237398497848249 -3.419695087202466 10.633856448533779
5.13175517140391 -3.087018616857814 10.883544277080038
6.067605407521201 -2.6267353422844923 11.0694824676948
7.019366677975437 -2.0178027940700067 11.174374253975294
7.8709761755624985 -1.3394884855871156 11.184355138163895
9.0643300998601 0.3009586161656689 -23.25435456909193
8.363500065285235 0.25545602695377273 -21.92841742795855
7.861321184971987 0.2719982125408973 -21.15151115928741
7.358879130520167 0.2817125132951935 -20.37480535414483
6.847103002219413 0.2913568070250262 -19.6046855750467
6.329695672401933 0.30399522897395415 -18.837552251397007
5.811675636701949 0.3159691560460211 -18.069399247488125
5.292354209427131 0.32576857014221877 -17.300799926779387
4.771581045990983 0.3329991409179258 -16.532670729365456
4.248940581209298 0.33979519938293923 -15.766469627404819
3.725384461440105 0.343484442186981 -15.00153775431127
3.2035321019382916 0.34436737535707723 -14.235607093110403
2.684279319404121 0.34686863613259405 -13.467264078084261
2.1692338666324487 0.3537493109664466 -12.695414749774383
1.6579070991759912 0.3649694569243491 -11.919926989412474
1.1505295489958214 0.3777874605938805 -11.142963749741249
0.6536853980681869 0.38985026550060714 -10.36328008509092
0.15990542769533872 0.40483120918488547 -9.582383166167203
-0.34380773295506867 0.4293424464428422 -8.80518480348024
-0.8678232430943373 0.46433753518163445 -8.037540607897899
-1.4190938791957448 0.5017493862871442 -7.290376186052945
-1.9653096236341958 0.5048756933110286 -6.574150425552393
-2.471393322819406 0.47304986786763503 -5.856533275450551
-2.888987752404982 0.3943457981936326 -5.109171576349625
-3.1748414007821437 0.2616333268119293 -4.304133875289569
-3.312758355651539 0.08058046440840377 -3.449200847700466
-3.342207038216385 -0.11985761878549867 -2.5906427457779158
-3.2994056252403365 -0.3179788702037056 -1.7494340065256921
-3.209602521428899 -0.48702688259987525 -0.9309770041201116
-3.100666450566206 -0.6013472761567951 -0.1418423878313665
-2.983291614668491 -0.6421842021949122 0.6182585096678532
-2.8672836947734535 -0.5761867819207157 1.349655963518711
-2.7489538479342355 -0.3908380174542003 2.032053319363019
-2.65012875779356 -0.08677728406648072 2.6057343487752
-2.576727655029224 0.30685553332141585 3.059859304736293
-2.5142555890010003 0.8045628180802193 3.4515824464051543
-2.44965609395741 1.4038150977200305 3.7972358162154602
-2.3827664692997184 2.0945577079291904 4.134549062539602
-2.3577571215206867 2.8309184145267263 4.519108486150328
-2.4764313105959976 3.328860122070372 4.91822786975346
-2.67420209926787 3.5635763965769316 5.281906638971427
-2.856491799687363 3.6121187048509893 5.555139914839836
-3.0239478928620485 3.56431102872766 5.866336525749928
-3.1849403786263726 3.2308396341989507 6.1825110788545
-3.3061124450995822 2.6284853844582283 6.471892480381519
-3.3401612235832197 1.8558042818331526 6.7096237419449425
-3.2634221511198085 1.0027670925477719 6.8962475647634855
-3.0833109306551783 0.14597649071144014 7.045847214631133
-2.812251347399577 -0.6578397912647574 7.197322606560569
-2.4572691618889175 -1.3759156146294993 7.3687885152039705
-2.0402944087895074 -1.9951468694261711 7.555125055612276
-1.5626020939959537 -2.5237064594411205 7.761601056958835
-1.0293682375096775 -2.9486231847737363 8.00408920216055
-0.4414002028418974 -3.282974042003869 8.288096882939689
0.2133862455726896 -3.533933085022479 8.620770868021381
0.9371790365094269 -3.6892280282830603 9.003187749970918
1.710398223713645 -3.749560103136638 9.420150032342868
2.5290993131003723 -3.7156694413830373 9.841023288545532
3.369858982122609 -3.5844461426518515 10.223795922667296
4.229449806221986 -3.355204762047561 10.547807479519864
5.111947658842923 -3.0258544614096774 10.803011759332211
6.040664052664283 -2.5753661394100025 10.991843324695761
6.990729691733931 -1.9857866330508527 11.094698379759757
7.85060684654539 -1.327767754319431 11.10023239443204
9.114850405675359 0.15659049332114627 -23.296601522633974
8.296426000936286 0.16027060409428037 -21.847514237710808
7.790199428301925 0.1833863634347811 -21.076022462272423
7.284076354296785 0.19964504808183517 -20.304605011230635
6.767679739549442 0.2141821756427279 -19.54045325890963
6.245966792398449 0.23049556882538141 -18.778983093801102
5.723787031528762 0.2461080580770409 -18.01648080651561
5.201249517537431 0.25973464610709124 -17.253454671505526
4.679795660698897 0.2712787977821838 -16.490016469864937
4.159515021795531 0.283292518053205 -15.727439492272419
3.6401584954797452 0.2952219749018249 -14.96577572639674
3.12233135097581 0.3074883254055873 -14.203214782074888
2.60672408962502 0.32432536419034896 -13.438541444042318
2.094755031689378 0.34661607609369094 -12.67094261387109
1.5859908991876088 0.37508704656237557 -11.900246390319202
1.0815589325246822 0.4106104320027674 -11.128560966314069
0.5847563729338562 0.4505609659011397 -10.355850162395235
0.08849045454365911 0.49322790086269636 -9.583559475924739
-0.4185735313186725 0.5440075406767765 -8.815616027451929
-0.9454669973539219 0.6023969537027878 -8.056766870880598
-1.4932269282962642 0.6548367857920457 -7.3136891243147675
-2.026587210721998 0.6660455819734343 -6.597185813531242
-2.50788405619159 0.6297761530774608 -5.869740597390426
-2.8764469953801517 0.5242317428977872 -5.113522420349504
-3.0856870987241143 0.34144471258964637 -4.337242187103813
-3.157562254954769 0.10835800892093331 -3.5418081957745997
-3.1432388364534503 -0.137760661975682 -2.7440289042347468
-3.081688645652223 -0.37263580056711293 -1.9442950735890228
-2.9991677336347733 -0.5647579208797445 -1.1360731481620046
-2.9132787691817104 -0.6915445718001263 -0.33352591438041423
-2.8350687029460104 -0.7333765016351769 0.4561598274515085
-2.7753660023699935 -0.6519484102730388 1.2092334619806913
-2.7283527807759302 -0.4465823758460176 1.8922938657851138
-2.690925599721838 -0.13035567754219507 2.464520938483306
-2.663919628505304 0.27763868825824156 2.913470370814481
-2.638921095047211 0.7760445027581808 3.2999220334459536
-2.607559510133989 1.3614690970238037 3.641555527565868
-2.5663921230420508 2.0261801355105074 3.9746598448067108
-2.543479589291721 2.721801629663158 4.340919597199504
-2.616196096518574 3.2580265305359473 4.737157525794183
-2.7583098488692994 3.5711811285530244 5.14626531064257
-2.9200314792520694 3.6596469917071013 5.512554427081807
-3.0664758772180694 3.5810000644312217 5.8949700839178405
-3.20502107715861 3.216132762182492 6.226248355173477
-3.303786314294464 2.6106447684136826 6.510595027560507
[...]
CELL_DATA 87
SCALARS quad_param_group int 1
LOOKUP_TABLE default
3
1
1
1
2
2
1
3
3
3
3
0
0
2
2
2
0
1
0
3
1
3
1
0
3
0
3
1
1
0
3
1
2
3
1
2
2
0
0
0
0
0
1
1
1
2
2
1
3
3
2
2
1
1
3
3
3
0
3
1
3
2
2
2
3
3
3
1
0
2
3
3
0
0
1
3
3
2
2
2
2
2
0
0
0
1
3
SCALARS single_component_feature float 1
LOOKUP_TABLE default
-0.032143624751209784
-0.023609190772491826
-0.005013800728724219
0.039052169290516775
-0.01907443856472176
-0.02894693027609629
-0.03230561532204863
-0.014252084946944632
-0.002216790454708709
0.0351468131496589
-0.007678836070907026
0.012091158522177294
-0.03489065317288502
-0.02653018933048657
0.026911892072960363
0.004911091716139099
-0.04642432759089907
0.019054686422836472
0.01155196061125649
0.012169359573729284
0.01637448646632318
-0.0022158055448763207
-0.0045884262630140615
0.0514587671417417
0.04634380769232514
-0.04456165009778071
-0.056833288336477356
0.042670816833214345
0.013883989799027982
0.02859466407022219
0.007296508883841231
-0.022897492330920886
-0.031077328977797428
-0.007121986265478081
-0.007177066533290474
0.005070780338937731
-0.016815699111082945
0.03985213161403331
0.037259347451118065
-0.0018631536423737785
0.0019444115485357759
0.013334656149325738
-0.0012579944058457321
-0.06357841555302261
-0.043394438411981345
0.041831768105084606
0.017559096994351174
0.027674372057849006
0.0021555818243269597
0.02649310873121369
-0.02175742370342083
0.04360221826906465
0.008545886701478773
0.020900936827930712
0.009988078729393482
-0.00960528347153386
-0.0030196533342564044
0.004452395000502964
-0.009460626255599394
-0.003933433065707745
-0.001069156294367539
-0.02325542961909402
0.021744979687763205
0.011427933893685922
0.007213645956220999
0.0028801378406420122
0.02370839879692408
-0.016899942710676068
-0.03871207185074578
0.06641036412921249
-0.009916471052508037
-0.008293315254656052
-0.004199493026525031
0.007868406123576217
0.01379358616823734
0.013600530294038848
-0.012389083042164881
-0.046929599526878016
-0.036713806943237864
0.005067001940537698
0.0042960283045160655
0.0068580103437767825
-0.02927093932849255
0.008834362749693786
0.017867649207842576
-0.015000893698207257
-0.012852128391648676
POINT_DATA 5568
SCALARS single_curvature float 1
LOOKUP_TABLE default
0.05320810694541388
0.055368574940278775
0.007531502600024567
0.0062863575150993055
0.004221552786823278
0.0032555908040403816
0.004522043075764135
0.0051451875171833
0.005109306409699297
0.00592752117995525
0.006331355698059384
0.006170915522384012
0.008667395808669225
0.008255258759898593
0.010491545983449434
0.016567796033972505
0.02401285669883498
0.033630050802129524
0.042318922269293124
0.06484346251630593
0.0988334395181893
0.13704304412039706
0.16059042630637982
0.15839975150859134
0.13652336956349936
0.108370633696073
0.10177258798448349
0.12042835301402094
0.1561637784115411
0.22337026746729455
0.288077008040411
0.31201557292308024
0.3016657260626473
0.23621820545447458
0.16054183724030613
0.2500171001375414
0.48106944137545277
0.7345792517746461
0.7943213102973316
0.812428842150678
0.7189421536565714
0.48030492378287054
0.3798936733203584
0.21453319308432567
0.16396697116423198
0.1557318341843047
0.15931686461051842
0.17066234318535625
0.18955907350207082
0.19166616903106032
0.18743869233381863
0.18005131814664574
0.15791335048860994
0.14059730009472235
0.13173622512716668
0.1256935342801773
0.1250347105222343
0.12405966305503557
0.12073130315818865
0.11915802764017014
0.08772847053598141
0.05629891343179269
0.024869356327603967
-0.006560200776584757
0.04903376311534376
0.05107392980659255
0.007579269178577985
0.006261780463855472
0.003782450241449258
0.0025113857023211787
0.003312370504510544
0.00363116753263706
0.0038939055049045266
0.005147834995997882
0.006087303953122162
0.006371582079304687
0.008281822268074767
0.007531895855634961
0.009676969285032495
0.015459475918240208
0.02231893045877076
0.03250541729275855
0.04428290341819573
0.07218616586557906
0.11294624393573786
0.15176405599256632
0.17076811319867757
0.16038478611882254
0.12955953400106374
0.1003499610976005
0.09578993336199566
0.12040351437729513
0.16232988983206748
0.22889281400069716
0.2939321708751125
0.31328106675178785
0.29939353531465246
0.23390927754292537
0.15397759044707332
0.2211669396635496
0.4231043210183138
0.680645010518908
0.7630875068401198
0.7938856923303672
0.7143694469879135
0.49989701259360925
0.37891005268084255
0.2113117606841739
0.16015240078935522
0.15174274422899806
0.15754582219507912
0.172406245775496
0.19542123292753713
0.20372617563950898
0.2015234905988796
0.1920287779090898
0.16624703422507897
0.14249373780734412
0.12894942770439233
0.12112748826946756
0.12019386742858257
0.11993195516748525
0.1179494414198269
0.11734052268984656
0.08666432140277697
0.05598812011570738
0.025311918828637786
-0.005364282458431804
0.04005891591282872
0.04186242948468425
0.00776800119290303
0.006338787186893135
0.0032995591007365477
0.001694440446024898
0.001551933237447985
0.0014988216533751062
0.002414659666310961
0.004314061226887071
0.006450020914989194
0.008339585462280535
0.009196185421624729
0.007910241836987242
0.009793953500901221
0.013996266774185423
0.019372152067515785
0.03141946884717973
0.049957639874922154
0.08994688189996704
0.14679180701277403
0.1855789887061091
0.19376063594458987
0.16526887524625733
0.11808435327912045
0.08954411164309685
0.0917733881273638
0.1291784239321868
0.1787462422839434
0.23992033036301394
0.30382651835623264
0.3133723108493445
0.2922563516990646
0.2286491951472698
0.13933656816299417
0.16190318348854285
0.29367599839252084
0.5394800361666143
0.6797409118247746
0.7468207681089452
0.700921170324465
0.5366471812934568
0.3819144046720465
0.20549953055361914
0.15277008867344413
0.14378284375776065
0.15379454248243699
0.17565173934809686
0.2065661793610046
0.2275232665573694
0.23036561135610373
0.21691981485261033
0.18393810860907658
0.14683686300068774
0.12253434546603605
0.1107130619190967
0.10937898078855837
0.1111383205747235
0.11261101593476118
0.11429137111298078
0.08519579395935122
0.05610021680572165
0.027004639652092086
-0.0020909375015374793
0.029986309510623414
0.0314658690382137
0.008682653695914415
0.007346538596974746
0.004668282734431689
0.005661784019438038
0.007877973116427434
0.009499710986052253
0.010821382644918791
0.010875283063260218
0.011597889631381208
0.01537220084077065
0.016940165957869974
0.016582098956501787
0.01771757410264083
0.01747330043558152
0.020355767079968203
0.03766994197334306
0.07180819827801035
0.13790054968968107
0.22663158396237815
0.26009522625990517
0.23966889862722793
0.18714848193889616
0.1259340396962352
0.10684385735451388
0.13060767884076435
0.17692528830200474
0.21385087728368546
0.2504303113967264
0.3072715273797498
0.2983451070246601
0.26531696372043106
0.21705451573853854
0.1356244329092125
0.10024482268156001
0.12758524174286748
0.2776109031019402
0.4763987566439722
0.636722044790908
0.6501014152387554
0.5682369809953115
0.40387565389503405
0.20017898726283426
0.14254949536659853
0.13077178699202258
0.14622730314362103
0.18049848357082282
0.22445287897056562
0.2687334897710269
0.28381172748297545
0.26411446819899276
0.21792997787114296
0.15530326215488877
0.10640285091302704
0.08529971521189392
0.08435476769585679
0.09360810290705546
0.10631005745174762
0.11387320044389485
0.0876225730886313
0.061371945733367766
0.03512131837810423
0.008870691022840688
0.04681223231018259
0.04879113469814779
0.00761473671997509
0.006263360062715648
0.0035879139304143695
0.002152160179497658
0.0027039079538206416
0.00287261932436069
0.0033188486466783204
0.0048103905309667535
0.00604901806195227
0.0067090477693477965
0.008307374289191198
0.007389044186795511
0.009477285607227973
0.014951533607358125
0.021483422343350784
0.03206214412693821
0.045487546207121345
0.07631287964741437
0.12086893822275001
0.15984538444431912
0.1763199977879862
0.1615028716900673
0.12615413902178918
0.09676596966038549
0.09359909000062816
0.12140736119667522
0.16605420487192338
0.2317660571154494
0.2967320888043432
0.3136458935841983
0.29792416677468625
0.2326444360399239
0.15042903093693002
0.20612393958111197
0.3910343909506178
0.6484836782008823
0.7445287529567207
0.7831365944309471
0.7117251104337408
0.5100810201081047
0.379053895914458
0.20973346878679855
0.15822415000877507
0.1496992504831123
0.15661296790331655
0.17326610549585808
0.19834421290354007
0.20985806865562906
0.20882085865322977
0.19828213562326985
0.170651184356626
0.14354015514700944
0.1274244898678294
0.11864081813208033
0.11758384250976665
0.11775467585915801
0.1165464456065712
0.11647284964208782
0.08619166965649357
0.055910489670899316
0.025629309685305066
-0.004651870300289185
0.05164803126444954
0.05376273331033622
0.007546447980758868
0.006273052158311271
0.004048611819119965
0.0029692423045060666
0.004061959918843373
0.004569398626214184
0.004634662677759748
0.005614138208536532
0.006214198313393038
0.006172020525065561
0.008453257446244873
0.007912830706833077
0.01011754617601933
0.01613403933909948
0.023362893449851374
0.03316561084489404
0.04300863570424257
0.06752488914708026
0.10398718357926104
0.1424723291110895
0.16435242544482404
0.15912466503461659
0.1338575575226476
0.1051942652285277
0.09926373833314855
0.12013451727714576
0.1583267654960369
0.2254445927508246
0.29035433633752183
0.31257683542810877
0.3008908334323876
0.23536653117222214
0.15810331428388574
0.2391563006695829
0.4599129919811864
0.7154889361494061
0.7831777904592434
0.8057329889469406
0.7171998280784739
0.48752610222122056
0.3793210939207096
0.21328983308422114
0.16251194647804962
0.15421785654023548
0.1586521057306745
0.17133513748917997
0.19181006654031152
0.19625872170272105
0.19276075801905554
0.18456227454919213
0.16103453933428546
0.14129364701658945
0.13070588762766785
0.12400173130468366
0.12323355864420996
0.12251037414301737
0.11966959865224454
0.11845086934207327
0.08730467227773
0.05615847521338674
0.02501227814904347
-0.006133918915299796
0.05328699445580291
0.05544980254048077
0.007530840564273521
0.006287159778631179
0.004230530700801301
0.0032702868674262383
0.004545522464345637
0.005174558121205649
0.005133948034938002
0.005944055069613579
0.006338091064999588
0.006173213931697754
0.008680384001452445
0.008274775598063817
0.010512575372441511
0.01659026348753439
0.024046216457726876
0.033654925596492566
0.04228542379504446
0.06470990018716291
0.09857676256870952
0.13677088499263126
0.16040162116458984
0.15836362083009214
0.13665961655252615
0.10853648143175136
0.10190783428100259
0.12045209052352725
0.15605927939060718
0.22326529484974741
0.2879590762240468
0.31198438828199637
0.3017025479804086
0.23626088226926795
0.16066469653878782
0.2505684072788293
0.4821187162199655
0.735509157553937
0.7948694640896653
0.8127611950540484
0.7190352085087491
0.4799499996671076
0.37992953326828366
0.21459732373713214
0.16404147868073254
0.15580912532438354
0.15935056735917966
0.17062761445652094
0.18944324699331067
0.19143118396335224
0.18716774759365848
0.17982216757351008
0.15775541675958912
0.14056253810067149
0.13178798480926596
0.12577864848141643
0.12512556800301214
0.12413823672149031
0.12078568053363192
0.11919465189062282
0.08775070697310215
0.05630676205558148
0.024862817138060808
-0.006581127779459864
0.04446186277673025
0.04637794782132647
0.007659969861121649
0.006276825911821662
0.003427307111083065
0.0018172554396367834
0.0021032056684063645
0.0021359619449082823
0.0027724144524504464
0.004518161658386817
0.006084477429936073
0.007191050296512267
0.008482824663753587
0.007403661029957169
0.009426056152305797
0.014500678619499338
0.020663165794114837
0.031713895933975354
0.046893657009364924
0.08085442553874322
0.12956174767226683
0.16858553850771965
0.18228885305273745
0.16273970624515288
0.12289916587203809
0.09358308997282196
0.09210096833101133
0.12328374849487488
0.17026310900471134
0.23471862295412893
0.29944755410913754
0.313793901857057
0.29616657571566196
0.2312812224893342
0.1466253820637497
0.19047650847853423
0.35686891506620144
0.6122523400132373
0.7233957109661383
0.7710929383561156
0.7084895112958939
0.5201611367786079
0.37965453586457665
0.20816476042171997
0.15625899388857833
0.14759388329196557
0.15563164375097852
0.17413135651208117
0.20130688267022112
0.21615204885041764
0.2164075989955384
0.20481606251686096
0.17528489634095046
0.1446688404582388
0.12577295191778387
0.11595576353773798
0.11478542596405478
0.11545853490233529
0.11512105572374531
0.11563357519597205
0.08576671674358298
0.05589985829119391
0.026032999838804846
-0.0038338586135842206
0.03877243603017505
0.040544152501911124
0.0078062328940473324
0.00636743773275435
0.00330852361637247
0.00186834991565862
0.0018346836997783559
0.0018236738277605032
0.0027965448741890785
0.0045800826366473564
0.006655168629562794
0.00872650443676366
0.009503641710972106
0.008193694235150763
0.010032864522363287
0.013956860363115215
0.01907588998549457
0.03143192558775988
0.05098455418326147
0.09279122944502895
0.15210802464296183
0.1907452919577305
0.19720577535354006
0.1660905226256886
0.11704485122426439
0.08887603157967862
0.09233128140333029
0.13150394483763478
0.1813564222546385
0.2413435586993359
0.3049243375233167
0.3130591597174132
0.2909368473334502
0.22785411954818605
0.13716701020572228
0.15372062355064395
0.2756144621015596
0.5172055882201281
0.6659577678888341
0.7393133555021865
0.6982964547189309
0.5408559307710762
0.3828447907998268
0.20478633225525428
0.1517920443790264
0.14269255456989746
0.15325196295964028
0.17607730177901285
0.20805159690172756
0.23078266330324457
0.23442693242788676
0.22046093493142732
0.18648325441716804
0.14748563308585058
0.1215371223897545
0.10910483452634526
0.10773562609394045
0.10985654310307585
0.11191514815089953
0.11395956866184129
0.08509017528019402
0.05622078189854676
0.0273513885168995
-0.0015180048647477629
0.02939203039932286
0.03088184288414069
0.008573404588232691
0.0072117188574771455
0.004482329075823642
0.005259108604705439
0.007258219376614767
0.008717377860823971
0.010016220227338824
0.01022677704153958
0.011070725087213231
0.01469963619861433
0.016117084745113627
0.015635393325100794
0.016837327847189807
0.01697539421484054
0.019845345125801453
0.03662362437760374
0.06942653160811277
0.1335381607825435
0.22042873574751795
0.25455230376474103
0.23671341161618806
0.18454567151474438
0.12339171189280904
0.10330785848946995
0.12513951994660732
0.17254747950095056
0.21158169060728277
0.2506425524280522
0.30819546075874804
0.3005254388463605
0.2681530818362267
0.21797619310772198
0.13359206030324255
0.09886132722669941
0.13142328133937417
0.2902285433815756
0.4906668566402013
0.6453751351046837
0.6549904692899999
0.5677628721327515
0.4015926119341207
0.20009846651497573
0.14296370540239423
0.13153845568835987
0.1468089666473126
0.1802338403884309
0.2233242252720878
0.26594378389971257
0.2800411143601759
0.26075164482102503
0.2155337184970062
0.15477163892738754
0.10783650404642013
0.08747804593261777
0.0864042227785794
0.09484057666525798
0.10639300930469724
0.11346129845489998
0.08704303206002131
0.060624765665142646
0.03420649927026398
0.007788232875385312
0.04130891123058884
0.04314375782568583
0.0077339633630348625
0.006315848380586727
0.0033106095811682285
0.0015773065330389302
0.001509673146654107
0.001447268229918822
0.002297226770869394
0.0042784425763873445
0.006295976087243958
0.007985442682100994
0.008941727443955702
0.007697128714646475
0.009622290361442989
0.014085236936711966
0.019698857765949138
0.03145245302561944
0.04902274240572962
0.08727471443398817
0.1417607228584575
0.1806580956776709
0.19045934258354344
0.16451376649217672
0.1192603809688381
0.09042047005745919
0.09152206277994338
0.12718227535593915
0.176266401607811
0.23849332040721508
0.302679599866135
0.3135900595412712
0.29345588207567486
0.2294086914146167
0.14142891500215155
0.16992205369722285
0.31142224194797963
0.560706837588734
0.6926748463234261
0.7539310613220851
0.7032847537068282
0.5322967430476495
0.3811275375705936
0.20622054981638108
0.15373694846893585
0.14485012879983364
0.15431780808701148
0.17523134355684436
0.2051048134976897
0.2243376114240239
0.22642235637928007
0.21348984339569346
0.18147809254507952
0.14621389864910309
0.1234777485594378
0.11223718615253409
0.11094293397370869
0.11237198605837233
0.11330293145272681
0.1146407022136684
0.08532617547055753
0.056011648727446656
0.026697121984335784
-0.002617404758775088
0.032900496675335976
0.034529622636469644
0.008042493084610976
0.006589970597503084
0.003588137477510027
0.0030199690470065366
0.0037511928382044746
0.004236892124969981
0.005382701820143828
0.006548229661189427
0.008134901327054017
0.010878971229140107
0.011619889727817722
0.010468738821510929
0.012068581059340349
0.014534620948898985
0.018368619988690413
0.0322992803934073
0.057006465764771204
0.10790670413846608
0.17940958383509825
0.21679708724134295
0.21416746889817956
0.17114062293805057
0.11492876105345398
0.08935507765503886
0.09958544278280816
0.14605045397084573
0.1943523649261995
0.24720767610352265
0.3087473382959464
0.31008932171094966
0.2832714244384153
0.22386991804776843
0.12830792159678192
0.11794339308788972
0.19608734884625145
0.4093063365907108
0.5944280791735593
0.7012678165604275
0.6830308427731323
0.5569798628375502
0.38895571429804027
0.2018808565016796
0.14742927180047535
0.13763577940560712
0.15059796413682888
0.1780066046390361
0.21488793438746925
0.24608930600344872
0.2538689076907114
0.23752577292199217
0.19879958116858143
0.1506519018098102
0.11634526652244609
0.10078707675223171
0.09935202819049997
0.10356470010265625
0.10890082191616285
0.11286357147332504
0.08507839350779685
0.057293215542268655
0.029508037576740462
0.0017228596112122685
0.05454324734397146
0.0567436585010425
0.0075215332602458496
0.006301613180305613
0.004376217689591237
0.0035068496531545906
0.0049219740176565515
0.005645233760666927
0.005534490925076273
0.006216059487626199
0.006455657763700476
0.006238668592149066
0.008913200991705129
0.008611943750210765
0.01087270524519808
0.01695436712158847
0.024583567195930873
0.034068992125094746
0.04176971581991992
0.06260991387284391
0.09454144467090692
0.13246879427514352
0.1574145538497827
0.15779498988208152
0.1388438231141718
0.11124190638564284
0.10416835648831509
0.12094445970674444
0.15446167284027096
0.22159482733984764
0.28604550829468534
0.3114513128536351
0.30225813071532226
0.23693510035140553
0.16261545281352993
0.2593712559489441
0.4985226878407555
0.7498475706516893
0.8034191508001383
0.8179901390398214
0.7206280249638654
0.47451506052293696
0.38059401765676076
0.21563497460687334
0.16524003626036665
0.157049443445895
0.15988835812178048
0.1700650288008791
0.18757198091029895
0.1876532657309301
0.18282990077709438
0.17616025934515475
0.15524026003109634
0.140015351835168
0.13260787161665846
0.1271286102336726
0.12656979706362353
0.1253926301218972
0.12166049250940275
0.11978894144416785
0.08811509683881792
0.05644125223346799
0.024767407628118063
-0.006906436977231867
0.05046530322264403
0.05254595294723436
0.007560100159383562
0.0062662280523364585
0.00392406577671838
0.0027582513552793847
0.0037191257672745674
0.004140171624917727
0.004291045237294514
0.005394005120367507
0.006145959074250084
0.0062326455587598485
0.008346886396339383
0.0077105995912886
0.0098893431593486
0.015819938747158552
0.02288317622332848
0.032848527188690524
0.043566476576899035
0.06960783472443122
0.10799105799045837
0.14664654367220117
0.16723844206344018
0.15968760131292337
0.13188178266098938
0.10292450407414132
0.09757631070914566
0.12013665843236257
0.16008246684326022
0.22701098448328857
0.29201037497406523
0.3129321037658951
0.30024427838496853
0.2347116662111392
0.1562431004937199
0.23098214738785447
0.44343309590548213
0.7001524304099203
0.7743177804623551
0.8004775855100077
0.715933017367862
0.4931307351528203
0.3790533758378225
0.21237864256529917
0.16143226676609268
0.1530885171067457
0.15815041355281667
0.17182811418628244
0.1934679400007023
0.199671967791756
0.1967492314405353
0.18795483708355754
0.16339622138648516
0.1418318819925831