# vtk DataFile Version 3.0
vtk output
ASCII
DATASET POLYDATA
POINTS 5568 float
9.007151671605614 0.15950592864763669 -23.34211278183793
8.196092218062724 0.20005982727883687 -21.86725878065444
7.6923040318959055 0.2198197689280041 -21.095669770803795
7.189328726092564 0.23310139589122533 -20.323753518740272
6.676649077518009 0.24291680263392562 -19.557802054619206
6.1590385184335545 0.25304677091352085 -18.793536041530256
5.640542539708182 0.26283050173950806 -18.02877439861617
5.122597748585975 0.27101752493472553 -17.263015213928657
4.607928624008499 0.27807113223371305 -16.495940072583185
4.0970557759386175 0.2867962409947094 -15.729098792571467
3.5885663735678994 0.29808339643850296 -14.963705447719045
3.08103769060532 0.3119611999088517 -14.19780671793513
2.5755021797907944 0.33086228129208173 -13.429478052945349
2.0742576639319044 0.35499154017045303 -12.657166774320947
1.5770792679696446 0.38479726928577085 -11.880520128652773
1.0861253128115835 0.4220303580708362 -11.101061082127929
0.605062727952297 0.46626419584762113 -10.318524872385668
0.12733608480676134 0.5149418351292678 -9.534184001999133
-0.3616780628797966 0.5715158118687185 -8.75402203048116
-0.8775560681552097 0.6390477079934346 -7.989155098321528
-1.4256445570691445 0.7030286964292529 -7.248592915165393
-1.9761906191577487 0.7227076998903361 -6.5487277421466334
-2.485391696796184 0.6869359391626162 -5.843810728181811
-2.886118492471108 0.5689948226409001 -5.109299968978045
-3.12202263281965 0.36312872726223144 -4.365629396437541
-3.2104284611989042 0.10471287705113841 -3.6141515292247792
-3.2051218580550365 -0.1643901864029355 -2.8599375324212635
-3.151056098597658 -0.41521630663701614 -2.091480756551163
-3.0782862336407826 -0.6095868577136598 -1.2880437622301688
-2.998329013001105 -0.7197218826987657 -0.4770609268420364
-2.9259497780289503 -0.7369810494166255 0.32663492087499746
-2.8705061394067513 -0.6372533250903564 1.0879950979069237
-2.8202114247700805 -0.4241909476188028 1.7874780249330127
-2.7689088411287237 -0.11264578183409762 2.3817703030081776
-2.7190364455454756 0.2909116527881881 2.8599574977678675
-2.6750747064558507 0.7844134704145462 3.2811362412071405
-2.6315867408100044 1.3633928622364961 3.6557535153795024
-2.5872896600884214 2.008173881258717 4.012592622432444
-2.5586098347370796 2.6599676776916006 4.376376092066156
-2.613757128893002 3.2050337635245767 4.7797176298729225
-2.7286496615561218 3.596799389962284 5.249012890843912
-2.8774567581552875 3.706931226311339 5.6341573619155065
-3.028785510199965 3.649044374435838 6.0305572215383165
-3.182327545012379 3.2891973778472003 6.355542469266516
-3.302708015372516 2.681265243834338 6.614754477619376
-3.346470493908348 1.9265521798834886 6.80578791249246
-3.289432950235244 1.0751650002168833 6.935459916025459
-3.1347845779139494 0.20796212108701706 7.016261151782974
-2.8842889562953737 -0.6295616428537345 7.086261676969781
-2.5371986858940874 -1.409029619123907 7.174696834242938
-2.096958257582929 -2.1011040580870493 7.295901585249507
-1.5652147252741393 -2.684128099665133 7.465170510082919
-0.9592124970100746 -3.1312074758386768 7.693571877863939
-0.30630138310578003 -3.435165488347632 7.988957948679254
0.3732580570116042 -3.617577877624104 8.348250894007085
1.0850383339287002 -3.6926362087561793 8.765297056309977
1.825650880894117 -3.6757067376791825 9.223540167567116
2.5963545299869946 -3.5779466275219916 9.69301603545399
3.3871309295504783 -3.4045110611772262 10.134289298160011
4.1961827299126675 -3.1591437926345414 10.52144448187507
5.040335044935266 -2.8329188344405587 10.840810608975072
5.9523448792331175 -2.3986938397901683 11.082575917993537
6.903764423294771 -1.8422611022361355 11.212238402765795
7.792653700831373 -1.218126221633999 11.221910765398883
9.262294933736824 0.07151236691774307 -23.27035575566451
8.364461607854984 0.06386230018974431 -21.776212200111463
7.853204613849524 0.09440911028676144 -21.007826076171604
7.341475562002031 0.11766306106454177 -20.239885321096335
6.818294991148131 0.14018157647251672 -19.480998891604727
6.289539585043658 0.16539571646266316 -18.72569792108243
5.760871110549819 0.1894981278332554 -17.96878202368804
5.2313755308884735 0.2112911291816626 -17.211816864797207
4.701973118432671 0.23023101821569666 -16.454928667620443
4.172547602319921 0.24882918074153348 -15.698972873654952
3.6434570096080643 0.2661328371106282 -14.943136490873414
3.116426455670836 0.28306065773698597 -14.186027114958309
2.5916373588454675 0.3057302123551111 -13.42729475460431
2.069422153759602 0.33471093449824807 -12.667085081214065
1.5491350577512373 0.3714710628672825 -11.905377953147557
1.031214917348663 0.41795786272849694 -11.144802390584054
0.5166542995367704 0.46898008489857673 -10.386184871487842
-0.0020036193766196364 0.5207162444954312 -9.631158422970165
-0.5314023246425257 0.580012013274449 -8.881058921207902
-1.0723613775996859 0.6415778444165084 -8.133404492271989
-1.6178702338849813 0.6897914020682197 -7.38973196517674
-2.1255896608953138 0.6962183265007852 -6.653859038342092
-2.5634122993922537 0.6567658339505674 -5.893620868144759
-2.8707277450072057 0.5491878152515338 -5.103939615159992
-3.0090602520488776 0.36285340433403424 -4.300547199394524
-3.0258414949529024 0.1282985964167729 -3.4835673498566813
-2.97678745159488 -0.11788536969324073 -2.6676098469431277
-2.896159733334824 -0.3556884015778781 -1.854844225145344
-2.806917725215239 -0.5584646156292016 -1.0467640296670297
-2.727594567809742 -0.7108639779318371 -0.2449721415913504
-2.6654417218009634 -0.7803132752678237 0.548011922021146
-2.6332308271081963 -0.7098876046922901 1.30651625401515
-2.6295226970862973 -0.5006548241572683 1.9753809735619159
-2.6412563880012647 -0.17062476347332223 2.5265110430927575
-2.6647176215286534 0.25338944501730676 2.944614515588591
-2.680816441551016 0.7604033596366679 3.2931523945582564
-2.680813371386288 1.3473707489865197 3.598267961800961
-2.657300183304829 2.0210083101658305 3.903512506407187
-2.64218529428717 2.743682242969776 4.26215944459017
-2.707808033601308 3.293690235739815 4.649915565266187
-2.845023057699559 3.5760408302516624 5.027587298956883
-3.0082514217977763 3.666589193838702 5.4349373442190325
-3.1368622214788826 3.5441720583807377 5.849820074472818
-3.245598837034111 3.1536890226619976 6.198355180395959
-3.3079093524124534 2.546881520939587 6.508882033877078
-3.3007326518194664 1.7855838361701681 6.768048206652696
-3.2185760272777806 0.9467851226557724 6.968609258885166
-3.0576760003874797 0.09679522318580824 7.12640640413364
-2.813363844693659 -0.7079232287602776 7.269190074460442
-2.483064448955817 -1.4274838230743305 7.416733245869619
-2.0778447469899377 -2.0516067687752377 7.573570045648447
-1.600573255829175 -2.5851100073669446 7.7516147824790425
-1.0502206940120509 -3.008418792146096 7.980946671180828
-0.4311856159533466 -3.314644818682766 8.274039699868307
0.24321598505309805 -3.5120243781378506 8.621844911819412
0.9754981843027097 -3.608549927582139 9.00984394710387
1.7512669356065684 -3.612083386185106 9.416084644740707
2.5623549725545898 -3.530666265121707 9.808475075508532
3.3934557977166384 -3.3714763068917044 10.156605413218495
4.238730214855575 -3.1353846113914594 10.444079477793466
5.098558559369986 -2.820463978431685 10.66136713287242
6.006812974145181 -2.4069946273018803 10.809461394280142
6.948159743109669 -1.8895881550812144 10.871917080185005
7.827751027000203 -1.307962772446909 10.84751413594938
9.087740373357283 0.13171257505058676 -23.31944784633239
8.249750385364415 0.15721664294998752 -21.83884341633702
7.743616074208392 0.18038098093769575 -21.06828282002274
7.237889630922241 0.19681006228713327 -20.297639835185308
6.721914627384899 0.21063684957165785 -19.53395088943923
6.200811397545824 0.22553180621057206 -18.772559019045254
5.67912627525765 0.23983824432963222 -18.01031159032111
5.157558535829922 0.25232294278668543 -17.247368715024656
4.638266344199241 0.26313015345256313 -16.48355577190591
4.121573560194703 0.27497101830531334 -15.72020463159081
3.6066211477540797 0.28815494886878606 -14.957877195577312
3.0929704339485564 0.30299393932693863 -14.194794189433898
2.5813903480071536 0.32308284972820256 -13.429538582604966
2.07356542756287 0.3487415214662402 -12.66110639597106
1.5691409809901786 0.38074013709968346 -11.889256406742549
1.0697419444787932 0.42089075021881733 -11.115878152024216
0.5782018840940332 0.4672596835956013 -10.341073400537361
0.08769559320933151 0.5168880450006427 -9.566250970600152
-0.4139242642818066 0.5743039944070841 -8.795841576314846
-0.9376611945954689 0.6399433905869478 -8.03650380849837
-1.4849165261535653 0.6989421769779847 -7.294984095221401
-2.0217131300323765 0.7144339187773338 -6.584078059145689
-2.5078811450438803 0.6775454025985254 -5.862567683896238
-2.8785573529968236 0.5630677421909519 -5.112021710551287
-3.0836144204134603 0.36368831401268187 -4.351215416291757
-3.1498033787583304 0.11290096362868218 -3.5802455974259573
-3.1309856347633085 -0.14903357802123468 -2.807209918971023
-3.0686732839046744 -0.39579959268266773 -2.025038016403376
-2.990721053041686 -0.5928081844826332 -1.220172561868957
-2.910988099772447 -0.716268795836971 -0.41233670165745595
-2.8418836547066144 -0.7500576607193736 0.3875841966688489
-2.7938142491515094 -0.6596378607238372 1.1478543243406731
-2.7584721874601303 -0.44787319696578487 1.8372912343205472
-2.7274337254282583 -0.13077298295104395 2.417045240976749
-2.7011969874655812 0.2784343494292267 2.8748790098392165
-2.6766123726431914 0.7753201336951336 3.271908821080915
-2.6471028059700625 1.356112284655819 3.6237920217725406
-2.6093946695356984 2.009493070637471 3.964082852864137
-2.5848865735649165 2.6831035251100532 4.326294721085454
-2.643344750439128 3.229688809103618 4.7246703366278195
-2.766085421906015 3.58466560098714 5.1634072039373695
-2.9193355646791423 3.6886856777988286 5.555353864112673
-3.0632719400834123 3.6109663964167056 5.956526463090589
-3.202762278430252 3.24197625878985 6.288491654514822
[...]
CELL_DATA 87
SCALARS quad_param_group int 1
LOOKUP_TABLE default
3
1
1
1
2
2
1
3
3
3
3
0
0
2
2
2
0
1
0
3
1
3
1
0
3
0
3
1
1
0
3
1
2
3
1
2
2
0
0
0
0
0
1
1
1
2
2
1
3
3
2
2
1
1
3
3
3
0
3
1
3
2
2
2
3
3
3
1
0
2
3
3
0
0
1
3
3
2
2
2
2
2
0
0
0
1
3
SCALARS single_component_feature float 1
LOOKUP_TABLE default
0.012985843470208007
-0.014324094401434355
0.00435981737173087
0.03471923687471876
0.01380677900512918
0.010706405750432482
0.0017210640917131523
0.017383581500021502
-0.008612747896043632
-0.0030532683219364424
0.003103919487185962
0.0008631802454653094
0.006160063832888088
0.039310010176516474
-0.006939318424834598
-0.03259598275664205
-0.04771434880576578
-0.009310228658267035
0.011203900780046733
0.001850965337143462
-0.04381103257762885
-0.005616047744054161
0.015132211767048535
-0.009213187230943432
-0.006937821914157682
-0.03135870001109995
-0.02755738685765617
-0.01710541522802847
0.007470768707042731
0.026167668158167963
-0.008643747922492381
0.012239439094056517
-0.0055511399874825906
0.04478535646896692
0.044235834057258686
0.010314835855265355
0.03256148162982982
-0.018381987071496138
-0.017117437625212423
-0.03208822333965949
0.006864493315452651
-0.013808993955133736
-0.0011024757101454766
-0.017336457418601944
0.016390368199608794
0.050322409434571724
0.019490532418673306
-0.03419590021882968
-0.046650447372715904
-0.006189232166442835
-0.005316679929244168
-0.029861457008865354
0.015680022890321447
-0.01727926692478394
-0.033383778784504735
-0.03143437212222698
0.02236159590992008
0.019014443191068882
-0.03568554273366009
-0.016171820674426046
-0.0010912226038997802
0.018615900988016503
0.02017172841468073
0.020885920720131984
0.012498672039784883
-0.015024064132506051
-0.034207220644360437
0.01309767405384532
0.02894605785269343
0.03612167785992621
0.008398529991896685
-0.019812415835834072
-0.021037183336818248
-0.01657026749443105
-0.02350596282636996
-0.0029160039410131306
-0.022760784659912686
0.0003014361178091292
0.006465584858557178
0.00418156779774839
0.0200351448774451
-0.02770409070850877
0.010516306206170079
0.06246686414797024
0.005371241467366655
0.026983819861201346
0.0227134017023735
POINT_DATA 5568
SCALARS single_curvature float 1
LOOKUP_TABLE default
0.04285316141972747
0.0443280497744502
0.007071560131623474
0.005702790565355791
0.0032656353754710026
0.002809816038720556
0.0034845429414716938
0.0037613376382419233
0.004420483241190436
0.00568718663906912
0.007208453591034619
0.00933888533214868
0.01125235043880678
0.010690662329346153
0.012465521421608788
0.01903999072074988
0.027270059517610738
0.041707453220968076
0.059641450199478835
0.09836102720263452
0.1570071131184769
0.20060284188141336
0.214544025187078
0.18730846103438642
0.14080426863228582
0.11141409928626335
0.11040280248827014
0.14141251714871267
0.17568259588455104
0.21777633202550867
0.27085485588166985
0.2789051080711667
0.2659007171259213
0.21562622539671056
0.13338605483639826
0.1431343097207425
0.20838532660516992
0.49979305843555843
0.6449689604934224
0.7389045166912583
0.7311893683759302
0.5554358185171898
0.4152864542350246
0.2206626864709461
0.16036121519671015
0.14506810974268625
0.1517533879503107
0.17462972820261607
0.20750655080765562
0.2353865574204984
0.24267896541952905
0.22855111187721047
0.19395854361739331
0.15080216385358214
0.12007170551384082
0.10397084812189497
0.10185881273975901
0.1065554568107171
0.11291936408239225
0.1184641495366856
0.09020022928265313
0.061936309028620656
0.03367238877458818
0.005408468520555709
0.0367271680485373
0.03882470775536591
0.008980241517355679
0.007539688667062846
0.004085748133451834
0.0021738493752492495
0.0021123498574613024
0.002125231930661764
0.003160564259491964
0.005019550596178045
0.0070242550079108075
0.00922615084899632
0.008842993800812533
0.008417647106931225
0.010098208306405716
0.01038453411423673
0.013178375426716096
0.027002406572687994
0.05087144259144223
0.09868697930049906
0.16016052029005956
0.18853067377805077
0.18357164490522038
0.14466270124856836
0.09082749287355268
0.0645066633282164
0.07432215904393905
0.12501695493618548
0.1933113146848275
0.27051455886706477
0.3436299304907789
0.3493931026741472
0.315355866907956
0.2406810831281383
0.14171500009253293
0.15656099050691863
0.34597549003985995
0.5268575819268994
0.6812565855373743
0.740512687430873
0.6541993213734564
0.5263619224695119
0.3475624036093267
0.18474463759611884
0.1401078674065441
0.13791253555789845
0.15384568692597217
0.178220510281487
0.21096516253513556
0.23077614784661638
0.23185553899475767
0.2178963135162902
0.18352320634709182
0.1462104645490951
0.12234429299301114
0.11221120085766123
0.11115430042735386
0.11084164617995916
0.10917664322932936
0.10824013038875732
0.07916454349567695
0.050088956602596574
0.0210133697095162
-0.008062217183564174
0.03912190640715404
0.040771820560385245
0.007536515274198276
0.006107228365199968
0.003233463688802499
0.0022189662322759725
0.0025208075212087553
0.0026273307421715783
0.0035462551126268045
0.0050854275766742205
0.006918085238284675
0.009094753421825478
0.010216259919927103
0.009047043123581042
0.01085542874075221
0.015545712179898762
0.0215159761541375
0.03439887059390393
0.053833924464949695
0.09558836973925265
0.15613702690709733
0.19674798620272035
0.20485599522674444
0.1736294523838003
0.12444641984555409
0.09611601868859311
0.0988000726680451
0.13614782155646732
0.18070241977310175
0.23401749218408605
0.29399277557247605
0.30137684287255107
0.28183571236676436
0.2232509118381784
0.134322306455886
0.14549190046022906
0.24153922224240096
0.4972473512829122
0.6502160928364085
0.7341035322034429
0.7081949140749549
0.5482250201519238
0.39442133385177586
0.20992181475981092
0.15424581724986489
0.14297177530652452
0.15248365989709328
0.17582212380412846
0.2086366954818906
0.2340286627204897
0.23931114747337387
0.22496189824664017
0.19021220588047066
0.14881151374674695
0.12043012085766422
0.10650997587172982
0.10491920908787687
0.10812828548218947
0.11195098963865428
0.11534256920642401
0.0867856880504718
0.05822880689451958
0.029671925738567362
0.0011150445826151462
0.05618669509415449
0.0573806763960036
0.006590608594540366
0.005512716328298962
0.004231869519947643
0.005026873298579817
0.006339183157909836
0.007064306623172085
0.00686661589886954
0.007549273386741043
0.008473695651356796
0.010628048955121682
0.014567954864052343
0.0157820189171492
0.017248326171922325
0.02821354446735178
0.04251294015359288
0.06464059547421501
0.08129982352445352
0.11202563539377625
0.16366356234491033
0.21105900349168194
0.2381623891372087
0.22186311467648676
0.18371765812303395
0.15119333757021156
0.1397541011128426
0.15453722969351025
0.16514121134198786
0.18014184365017513
0.21513576921607713
0.22481079872746404
0.22698893667802528
0.19809356287551996
0.13801731321165292
0.14479026700318215
0.15753535573486016
0.5399031357918016
0.6522796539758244
0.76566328195865
0.7844448031055098
0.5681057864258846
0.4643334992659122
0.24430455509146468
0.17420160233379012
0.14955365750958827
0.14958337606438407
0.17137524367727006
0.204496325082718
0.238304129189101
0.2508578103310579
0.2383353932604355
0.2049488870598065
0.15788600034778835
0.12068930378201968
0.09810569063519493
0.09401420066126932
0.10189522390192964
0.11451509854373236
0.12574151386396457
0.09833190706799437
0.07092230027202417
0.04351269347605398
0.016103086680083784
0.04326936357470078
0.044729054212448265
0.007037927059884798
0.00567697788222203
0.003283666942646529
0.0028796074364322226
0.0035833255849331705
0.003877624208536253
0.004508259504982282
0.0057504229727098405
0.007244305841946696
0.009371280299785456
0.011360998565327352
0.010864996077520804
0.012633745429678427
0.019382701050021253
0.027834820416533266
0.04248414967063412
0.06030122548879099
0.09872652490960382
0.15716277425034447
0.20097684600314614
0.21545874793094164
0.18861488206239144
0.14238433981548795
0.11288720651158615
0.11151091468560115
0.14191341500688745
0.17522932346590595
0.21626153339976553
0.2686674763928245
0.2767798925549687
0.26438708673078853
0.21491887116776467
0.13339588387932888
0.14301643501574027
0.20567767754412586
0.5005050078726404
0.6447341033601359
0.7395665741436483
0.733318269540299
0.5560420418369334
0.4172369513237307
0.2216488329739202
0.16092669293451786
0.14525879480958143
0.15168020850945668
0.17451325762240757
0.20739705201609587
0.2355102311621035
0.2429962336525655
0.22890237684291984
0.19433508101454552
0.15101716324584266
0.12005574791425583
0.10373447478630482
0.10156427611891237
0.10639654861340232
0.11300137192586703
0.11875496623600777
0.09052044873434767
0.062285931232687566
0.03405141373102746
0.00581689622936736
0.04174811061947134
0.043266631937476666
0.007174188809598463
0.005785533072401654
0.003228073808493415
0.0026271448330944906
0.003215908931516157
0.0034447042720230432
0.00418015516987036
0.005516211689277107
0.0071156597806866706
0.009256985178535815
0.01095931291176315
0.010219156902829504
0.012008380425316174
0.018094105250539637
0.025712715873487405
0.039614708861937735
0.057898463464330446
0.0974305982920875
0.15663441736116107
0.1995717862606976
0.21199698340260353
0.18368415875868704
0.13643734705131733
0.10733860683243486
0.10732865532876346
0.14002101008881845
0.17696336648372685
0.22201269101161875
0.2769462412684589
0.2848230023365942
0.2701096649565521
0.2176075063055641
0.13344838947006507
0.14355790619478317
0.21629706503938706
0.4982269234628851
0.6458551263855776
0.7372432977694333
0.7252252220563211
0.5536834440833817
0.40983665944142417
0.2178903627521354
0.15877546528819095
0.1445304384019308
0.1519531639824876
0.1749503930874903
0.20780881444860336
0.235037968059191
0.24179494502645155
0.2275843481439241
0.19293083560480553
0.15022824701395063
0.12013260170816496
0.10463234348809293
0.102674167677516
0.1069885635627458
0.11268245554360323
0.11765075315851674
0.08930653234060756
0.06096231152269839
0.032618090704789215
0.004273869886880041
0.03825750155642583
0.03996576862388401
0.007715363212026871
0.006275525087614245
0.0032828796802330073
0.002092880100238012
0.002260935810337899
0.0023258867252601936
0.0033043346081681256
0.0049326029136149184
0.006867081141774723
0.009057295164835501
0.00994206744607906
0.008661150584673042
0.010468212651273921
0.01456270615771251
0.019882559605037316
0.03255702403450697
0.052538063369354744
0.09519649053738452
0.15620236843421167
0.1955881213531074
0.20186889915792783
0.16947108161670707
0.11953869757214508
0.09150992332631502
0.09527334513275977
0.13454199813389278
0.18233318960322825
0.23908640121785368
0.30109079582435644
0.3082642004257479
0.2866926290323305
0.22564823058634592
0.1349737760602081
0.1466092065807033
0.2534939453579748
0.49839164996284074
0.6528922315024265
0.7335023452111383
0.7009237028449719
0.5456839116195776
0.38791905303337704
0.20650872839859274
0.15231643113476326
0.14229810267499693
0.15269347878102538
0.1761755501383065
0.2089750466656511
0.2335931158135967
0.23826957183513936
0.22390298442637752
0.18914602447082796
0.14830191379750268
0.12060858941135097
0.10730371927549637
0.1058385234365297
0.10857184538120287
0.11161551500988974
0.11436530313451473
0.08572501803618823
0.05708473293786173
0.02844444783953523
-0.00019583725879127045
0.04518462896167522
0.04658156305320347
0.006909085348342427
0.005586032197464613
0.003385720467381228
0.0032038067898806626
0.004024818473104863
0.004395805495073546
0.004896942374863658
0.006034765456275738
0.007414110977415744
0.009529550556151517
0.011852436160161153
0.01164768799990302
0.01338420196423098
0.020884316559895613
0.030313296844141906
0.045989354936249734
0.0633558796770016
0.10048983896323228
0.15795842203714916
0.20262457315312113
0.21942687514795065
0.19431160328521357
0.14931189982822166
0.11933659112289552
0.116343139136679
0.14409316681863943
0.17330386060344785
0.2097341317946714
0.2591871432236911
0.2675689167537662
0.2578137990271222
0.21187631677421007
0.13362884232253255
0.14270746551254618
0.1947157990838947
0.5044740000584684
0.6442161379161347
0.7428231671887882
0.7424790005158101
0.5585391572997275
0.42565542462509287
0.22586658318563435
0.163354412560076
0.14607096686099763
0.15135362381713527
0.17399973331836913
0.20691602825003988
0.23603725559872027
0.24437145025794116
0.23045129516208848
0.19601417748782549
0.15200455110192074
0.12002308915783409
0.10271685378461638
0.10027666476412753
0.10568677226192559
0.11333832998323962
0.12000847059797289
0.09190493814328649
0.06380140568860009
0.035697873233913685
0.007594340779227285
0.03647030830745622
0.038423571995128254
0.00850518402803764
0.0070547018728230795
0.0037102774176865526
0.0018176537622036023
0.0016500430554227937
0.0016416733756092633
0.0027191847815354353
0.0047252709416739655
0.006878271130227142
0.00908816437759893
0.009103262686500616
0.008164301415575854
0.009912821666071676
0.01158685855350624
0.014817476537660523
0.027720387966811425
0.050122109878129206
0.09617951590034796
0.1581311895812935
0.19106200468430504
0.19010123092868117
0.1533776376634964
0.10080902077191962
0.07388739963500203
0.08164861777298126
0.12833481157548748
0.18917790911172838
0.259246681839673
0.3286858482936576
0.3349827115319367
0.30539044902490803
0.2352664709953462
0.13885292596296414
0.15247454049371215
0.3090464810762197
0.5123205658950949
0.668668853860522
0.735740793144275
0.6713281433014211
0.5340346697350071
0.36205040799594096
0.19266314692085562
0.14453614476110954
0.13952666681942044
0.15345857115099926
0.17751149337236913
0.2102688815719265
0.2318080772377895
0.23415063551640652
0.21994624467673898
0.18535155412151194
0.1467580891993255
0.12160431783399356
0.110457967850024
0.10932607274389503
0.11012210942494488
0.11012327858057895
0.11045202616267875
0.0815163627740301
0.052580699385381444
0.02364503599673279
-0.005290627391915867
0.037093608273120346
0.038912109149411504
0.008066229063292393
0.006615957200160654
0.0034358795496559854
0.0019239696025311049
0.0018579819981652023
0.001869721655150154
0.002922635176235617
0.004719564086802157
0.00682931268860399
0.009036149741047614
0.009504422779926948
0.0082277536305068
0.010018305464059364
0.01301129488228134
0.01724402081070678
0.02981683658157285
0.05086779926655443
0.09512685064612746
0.15676922476726401
0.19349870026597102
0.19644342504977863
0.16199252817842538
0.11078454317290924
0.08327879019365754
0.08893448113682188
0.13165281824162628
0.18540170661366268
0.24834925156309987
0.313899736982523
0.3206799146223647
0.29541201668499895
0.23005196754226784
0.13652737963581446
0.1490466787457324
0.27739778508375235
0.5029097156010126
0.6591016540399006
0.7335804948818947
0.6874740866251116
0.5406482781713874
0.37603799519804887
0.20019999885646758
0.14876347337227339
0.14104310218550944
0.15305783471657106
0.17680198850823062
0.2095787746487674
0.23278320885918868
0.23637359975872518
0.22203641226382018
0.18731636610025557
0.14749930026517127
0.12101114162659143
0.10875427121882893
0.10747465726175692
0.10932620645610791
0.11096145832648993
0.11257331151443661
0.08379014762562008
0.055006983736803544
0.02622381984798701
-0.0025593440408295254
0.03869218204616883
0.04036962200140252
0.007620003133290663
0.006185245161435009
0.0032537306770350663
0.002155937667670677
0.0023945760829314137
0.002480399206542348
0.003429108693935489
0.0050103308008102275
0.006891287895442382
0.009074668069136657
0.010083047169240052
0.00885297832355016
0.010661423892479038
0.015069304605844984
0.0207266633400459
0.03349531438279298
0.05318579032374949
0.09537208025515688
0.1561466251932623
0.1961952380942666
0.20343546407903276
0.17164835703383466
0.12210466936277795
0.09391905413259614
0.09711980748059341
0.13538297501239854
0.18147290397117866
0.2364249775851075
0.2973716010592639
0.30465591864169816
0.28414977639293754
0.2243884065545691
0.13461260212218848
0.1460019800962312
0.24711930056591905
0.4976745494633066
0.6514244225348158
0.7337627348204335
0.7047484644446506
0.5470364316030122
0.391332829212732
0.20830428061279757
0.15333073459597413
0.1426529657643006
0.15258428866766685
0.1759909860094578
0.20879815477207686
0.23382248412578613
0.2388160201271894
0.22445554484416064
0.18969995943664178
0.1485631217568767
0.12051109787645282
0.10688692745479124
0.10535794897211419
0.10834169552758138
0.11179362810079736
0.11487866922163778
0.08628171069687593
0.05768475217211408
0.029087793647352228
0.0004908351225903773
0.03800895373170551
0.03973660630538551
0.007776120886463213
0.00633361479029628
0.003304464612321788
0.0020570165686454073
0.002181171749996491
0.0022343012496520076
0.003229470391148984
0.004887324825960016
0.006854965728574699
0.00904903885244368
0.009857702722631511
0.008555563914703978
0.010361001457669008
0.014259794072156495
0.019374535900712957
0.032006160371444624
0.05217211022077477
0.095121595338094
0.15626124586045714
0.1952121088589469
0.20089584896436036
0.16812268577608383
0.11795355758739792
0.0900207843029918
0.09412997260468894
0.13402104255094813
0.18287322717258692
0.2407427037756383
0.3033967685452972
0.3105007489675435
0.28826686902588805
0.22643351400241699
0.1352188673870148
0.14700912742446415
0.2575712334182399
0.4989682176482233
0.6538762630087281
0.7334029092390322
0.698535049616586
0.5448213530158316
0.3857946781041139
0.2053874006637951
0.15168374144721508
0.14207597046298232
0.15276037925807295
0.17628933445829204
0.2090843214610905
0.23344961245062562
0.23792992834482668
0.22356284778376317
0.18880774481515564
0.14814635265984794
0.12067342589457188
0.107563126520993
0.10613524679739544
0.10871203712039108
0.11150246348803433
0.11404550528395964
0.08537877170653595
0.056712038129112255
0.028045304551688563
-0.000621429025735129
0.03979283397307722
0.04140411971215206
0.007422864440320448
0.006002882206730418
0.0032151410821459857
0.002319255235752522
0.002708933108781475
0.00284758266739141
0.0037196330642141743
0.00519962794150227
0.0069640503870308755
0.009130596473214262
0.010415485734708903
0.009351778708478514
0.01115790671950484
0.016249341380147577
0.022677050663648737
0.03577399376089166
0.054857896744496176
0.0959885060665595
0.15618888159296113
0.1975431960047527
0.20688825949403933
0.17647477500284423
0.1278215516816126
0.09927954058943808
0.1012134891604567
0.13724551070439056
0.17961574737669725
0.23058367047661177
0.2891501287852788
0.2966757216080867
0.278512946412045
0.22163192893854194
0.13397166505706593
0.14483214365829625
0.23388331789442718
0.49700038899820176
0.6486870953060805
0.734759469162131
0.71309056494385
0.5498644381898861
0.3988276956087043
0.21221778613365597
0.15554706796449988
0.1434228941440275
0.1523369475154179
0.17557798758735785
0.2084039000620782
0.23432057473846074
0.24001887728406315
0.22569510846631188
0.19096151108340184
0.14918605694355616
0.12032670435221207
0.10597250866511779
0.10428681559933092
0.1078152362769185
0.1121692683654221
0.11600354179762434
0.0875052913925499
0.059007040987475445
0.030508790582400996
0.0020105401773265474
0.05942735664451348
0.06060213389057927
0.006585001312106452
0.005580429430071829
0.004525675102853273
0.0055450241207109785
0.006981803742105068
0.007794407483023886
0.007401504047267562
0.007974990181204159
0.00880222692171011
0.010990878919787365
0.015355284973483279
0.016933088288416834
0.018301581074107585
0.030146235768595042
0.045759135451924546
0.06979916623228574
0.0866757346659228
0.11568051272840012
0.16547822773711016
0.2133850738500475
0.24295374279846335
0.22909204522573243
0.19300191015215087
0.15976182755266505
0.1459232901907566
0.15725673611378552
0.16332328264497306
0.17299102850376072
0.2042244017957265
0.2142404418984778
0.21926613964857128
0.1947226485516885
0.13975062601142846
0.1460032605292829
0.15114888088735048
0.5526163237978484
0.6570290099039615
0.7732196487627822
0.7949362539123724
0.5701996799804857
0.4739043936978888
0.24858026158001578
0.17679309585060266
0.1503433634799109
0.1490601986004857
0.17064472562978195
0.20383220568995747
0.23882114173257274
0.2525222230135607
0.24051149607194316
0.2075036986614392
0.15971819830748993
0.12107939610461185