# vtk DataFile Version 3.0
vtk output
ASCII
DATASET POLYDATA
POINTS 5568 float
9.28301150782383 0.04214395337428113 -23.305907441863567
8.324302368633345 0.046879190916484494 -21.689808303696093
7.807457265799475 0.06858864844682871 -20.934804021464185
7.296117702123452 0.08118456620169598 -20.17665103363074
6.777587307341366 0.09387791319272895 -19.424457393049668
6.25594686070234 0.1093388118450159 -18.67309609065584
5.7349542354969145 0.12409187370282607 -17.919643483437195
5.21328259147936 0.1374909846892915 -17.16626302002414
4.692609004516271 0.14941631819259496 -16.41301915613282
4.172672316074732 0.1628397484523256 -15.66112774926468
3.652831518226125 0.17724800441780308 -14.910530371271399
3.1340472627088567 0.19347397719590637 -14.158816582590967
2.6167495844550412 0.21635590888187123 -13.405210345267545
2.1022482540630354 0.24481479653027277 -12.64908764986197
1.5900927163401515 0.2800062177347656 -11.890378033881179
1.0790174804751607 0.32474314448739316 -11.133633273494063
0.5735047104573686 0.3755783835130323 -10.377926051221745
0.06886293501334906 0.43048222217050713 -9.623169606267407
-0.44758040906968766 0.49390044752530915 -8.87267927834582
-0.9809072266302074 0.5632851617312175 -8.129223117624905
-1.5248322937437346 0.6204970655513382 -7.395576884324402
-2.036827213214751 0.6295861596998439 -6.683587419732671
-2.4843646703594064 0.5845506340889866 -5.962027183933271
-2.81896277560156 0.4634352351882405 -5.209591448829577
-2.9837503785385655 0.2532223879055382 -4.4362449818482235
-3.009871414605006 -0.013579184523238808 -3.649007545959541
-2.9655474982067465 -0.28822955576787934 -2.865629683722027
-2.899889789076701 -0.5339980292481707 -2.0695080115216116
-2.8415967072473545 -0.719973358945454 -1.2415196892563878
-2.7951463644366363 -0.8487868695747778 -0.3897537235039741
-2.7802300557467463 -0.8727113611600552 0.4684071668911498
-2.797387830244728 -0.744006350551339 1.2589859048086764
-2.8151439834052443 -0.49534491782531154 1.9488192635520538
-2.79478711104576 -0.15226057251681124 2.506779947057635
-2.748514044350878 0.2598527174627909 2.948383071023432
-2.682290026552659 0.7488205059247335 3.349503593413536
-2.605175229676449 1.3188004786074876 3.7338348279540714
-2.5266753630268313 1.961939936393554 4.127738702393169
-2.4795648375806154 2.6193131601853374 4.549084766584801
-2.5438446451183925 3.122825528262009 4.9882750267102365
-2.6876932218856218 3.385241410877233 5.327807599933226
-2.851353048263388 3.491835915412337 5.668030828607673
-3.0255549391005547 3.4480603347521526 6.039805107105759
-3.2154817617960543 3.084437128902987 6.340684734251554
-3.3468937609009752 2.495558973482422 6.584930076036438
-3.3802657055688443 1.7539123000116428 6.77309843284161
-3.3010414745041454 0.912126225253008 6.909126257136585
-3.1202088004547766 0.0498157988552288 7.003512663130836
-2.8421899049118013 -0.7735975732847075 7.095268528660133
-2.4747664683435358 -1.5185611478237835 7.21396356330547
-2.034307210822386 -2.158423887065008 7.366327124880906
-1.5224730411475902 -2.688807903319825 7.559487376182762
-0.9441990436008103 -3.09280193709235 7.808138337382717
-0.31164594280678826 -3.364894169056566 8.121770498360505
0.3541613566256129 -3.5230071839646757 8.490642196707617
1.0575139649001604 -3.5888899327492956 8.89985667625765
1.8000875676896237 -3.57548418832069 9.334612982110615
2.5799751286438375 -3.4863079385887734 9.768944939982045
3.3805281185734684 -3.325122689469123 10.171045334753828
4.203255692668328 -3.0948874061800726 10.525615983521291
5.044951289548109 -2.797952000748081 10.817392804194668
5.94054415231242 -2.419117643985455 11.039324004070785
6.897504823810939 -1.9510366366257597 11.176832821087395
7.836360861283281 -1.4109515365385543 11.213692561114462
9.44274075132172 -0.03591332927250904 -23.303752466945475
8.366876458855613 -0.04606751224755154 -21.544414585158112
7.840104999599545 -0.027609201299051648 -20.80460243528297
7.324376685147506 -0.020572354569359273 -20.05850232330175
6.8049291959892715 -0.011116934368163736 -19.316905017907377
6.284564956472419 0.0024561733039561873 -18.574360400495603
5.765955618851756 0.015323789901527263 -17.828651471030415
5.246074789907604 0.02743383527531055 -17.08364275922583
4.726398778370302 0.038560651520247985 -16.339566200313964
4.206164757567812 0.05199125382540748 -15.597626069261567
3.684662072505561 0.06667102310393093 -14.857459988020175
3.1637803026535716 0.08382107483080208 -14.115932855284468
2.643735146858321 0.10895285122154111 -13.372656887105814
2.125774882584349 0.13949280140691794 -12.627119878886404
1.6094170883305754 0.17682516605906967 -11.879367346714687
1.0906563135097247 0.22476208441049775 -11.13640780876845
0.5761390582170888 0.2790807915193464 -10.396115114404212
0.06354831288237461 0.3389057827041278 -9.656875064238145
-0.46167252798247704 0.40805637097261577 -8.92161596020987
-1.000839508269194 0.4822737502360783 -8.191477296523422
-1.5417608857514142 0.5402317637144914 -7.466422461171034
-2.035558922285656 0.5449615185740213 -6.759067423618866
-2.4558222997433097 0.49228476859766884 -6.046014038820879
-2.76908938237999 0.3626549743208523 -5.300051877058164
-2.908458333156638 0.13767240238450046 -4.522311983296626
-2.904510703754772 -0.15036237142845182 -3.7274906254524645
-2.840779735032464 -0.4423016310580811 -2.942847236655671
-2.776033060018989 -0.6891802191101799 -2.1395382937383687
-2.7412202298905672 -0.862276366932176 -1.2870584432815295
-2.7308673444087863 -0.9896566457711463 -0.3853026460888077
-2.774334966156667 -0.9934065200824881 0.541598222719039
-2.858709200190944 -0.8168815164694702 1.3716310687886648
-2.925139148272516 -0.5267985511581827 2.071261302221224
-2.9053432453196404 -0.15922082709220736 2.614979867224032
-2.82616367556147 0.2538939578527462 3.0512520491226502
-2.7055840583282276 0.7361361594845988 3.4720593674740465
-2.5692693380344007 1.2989333859320211 3.9069298205631684
-2.442676137869163 1.9323958553536262 4.371024135816677
-2.369125112951083 2.5663143043851746 4.858957771262988
-2.43824775907455 3.028980585881216 5.3466718912872375
-2.5953723143536767 3.2262353643707633 5.612295316800636
-2.766991980485302 3.3383828372812063 5.901874608802068
-2.9786526576099144 3.3377285686153404 6.249271532794368
-3.231324192019957 2.977997311957706 6.519778629907155
-3.402246631519963 2.403142269077306 6.726644124033992
-3.4493851948636114 1.6756674203306194 6.880230146927906
-3.359474194586426 0.8358065136308881 6.988525254319935
-3.154046712849061 -0.03203649028106659 7.05911360797338
-2.8434965531409615 -0.8590102381597027 7.1373688617997075
-2.4457338092948184 -1.599475711371549 7.2580329961885806
-1.986885680487587 -2.220497422070085 7.424858658612674
-1.467519424006838 -2.7225854087161863 7.638338483159636
-0.8888562998723011 -3.0952110225973004 7.907672639607396
-0.25889805452237236 -3.334214927675298 8.241928812506899
0.3968008872170333 -3.4605242428601333 8.626995330660801
1.0824011329270031 -3.506798946562344 9.042663773439607
1.8105454018173615 -3.4870710360585067 9.478991985426477
2.5811193461112847 -3.398609922135345 9.91544127595585
3.3733452018126675 -3.242755928229339 10.323559051751651
4.194120158290972 -3.023106117927656 10.694283445993738
5.027834997008252 -2.7498375718048096 11.008514105594177
5.9113739327318635 -2.415726462742162 11.256390801191971
6.884671995090092 -2.0159504615544335 11.435635166402083
7.888270709861323 -1.53876377894967 11.518660236144644
9.589049499886746 -0.10741221758089381 -23.3017785536122
8.399953823293654 -0.13241480041694606 -21.405604399010368
7.864000822052555 -0.11690871081091633 -20.679399413178523
7.344222718435748 -0.11492348504255945 -19.944165506719433
6.823929697188245 -0.1084082755498178 -19.212172871240444
6.304731597983121 -0.09655006134193049 -18.477646500698814
5.7882989514371594 -0.08539574901443554 -17.73898942014964
5.270055211305534 -0.07445692877822128 -17.00160037494598
4.751292158308338 -0.06405548539266492 -16.26585963266425
4.230786046290935 -0.050618316471712485 -15.5329555966423
3.707758909025054 -0.03569141634619124 -14.802248390331728
3.1849518715384173 -0.017700625882451707 -14.069956531363108
2.662380839711916 0.009478585803958026 -13.336036578370454
2.1412402924867324 0.041913535837243845 -12.600079804800231
1.6210169668024057 0.08119670256982922 -11.862233929819602
1.09516035061119 0.1320540624865686 -11.131663138430271
0.5723198193916073 0.18955397885498432 -10.405185052619109
0.05237873288264927 0.253864786369491 -9.679855553325691
-0.4809768043696345 0.3282490559237035 -8.958237929925353
-1.0255488524479226 0.4068746937639399 -8.240085455056606
-1.5637277601646986 0.4655082357031285 -7.522850511377748
-2.0411551821469316 0.46630730636361745 -6.819619433567482
-2.437137083145003 0.4067780897768002 -6.113969903790323
-2.7312792648210897 0.26940737167220186 -5.373538035635396
-2.8474039325115137 0.03057456943500006 -4.590879184390602
-2.815431463952116 -0.27764125381742466 -3.7879009615578116
-2.733695529930443 -0.5857873712612871 -3.001529128905603
-2.6697919012294946 -0.8336843017065323 -2.1916052922340903
-2.656961775749624 -0.9948485277329242 -1.315469700640322
-2.681465441914724 -1.1208771036782759 -0.3652097956814835
-2.7827239085527324 -1.1046767719392128 0.6306411402669462
-2.933263090950777 -0.880501305377317 1.5033870119600388
-3.0463675549916824 -0.5496236836595133 2.2155690399140604
-3.0270550928928035 -0.15893362991779442 2.747080725311487
-2.9174329265948686 0.25619741489039155 3.1796127522933606
-2.7448444899307556 0.7350777867760216 3.621588292393785
-2.55042637624503 1.2950842661761133 4.108403271162183
-2.3764720588674373 1.923666574196323 4.643590403505339
-2.2774126544104796 2.539647525758762 5.197794882307086
-2.35156413006485 2.9679119764900106 5.73432648074905
-2.5183058510445826 3.115639923112456 5.943673460295516
-2.6973887375710426 3.2329587471387735 6.1921787511327375
-2.9478067466935522 3.2720149447372773 6.524094735238658
-3.26359584920817 2.9103559774292878 6.770162611748672
[...]
CELL_DATA 87
SCALARS quad_param_group int 1
LOOKUP_TABLE default
3
1
1
1
2
2
1
3
3
3
3
0
0
2
2
2
0
1
0
3
1
3
1
0
3
0
3
1
1
0
3
1
2
3
1
2
2
0
0
0
0
0
1
1
1
2
2
1
3
3
2
2
1
1
3
3
3
0
3
1
3
2
2
2
3
3
3
1
0
2
3
3
0
0
1
3
3
2
2
2
2
2
0
0
0
1
3
SCALARS single_component_feature float 1
LOOKUP_TABLE default
0.018266000950271435
0.037145408808488815
0.05443856363032957
0.03451924805131324
-0.010931738040657484
0.013220772472372673
-0.04091124993831371
-0.031236692380282684
-0.009463188245869423
-0.008775460168872935
-0.03623199747109819
-0.02878137302971555
-0.017479796592949185
0.006952385335331358
-0.016823082559280274
-0.011388236245133727
0.0002911098748818869
0.0009636213322512482
0.004973900041691836
0.01833925013451873
0.02756247310805455
-0.02271591596719056
-0.00941529544235718
0.012921474597212913
-0.01351093350485414
0.020731320287468047
-0.010804326277851266
-0.04205747921421634
-0.03575796465470579
0.007038083596793074
0.009242719763785507
-0.012831934106095526
0.013060307491187969
-0.017157176726107275
-0.003948711672987109
-0.023812028836579523
0.017520080034806554
0.010037346855399115
0.008351208070294013
0.00657568773289588
0.021188163512543684
-0.006547101428357828
-0.0024295794339837676
-0.006141362432374911
0.0040418259064537165
-0.0037701287070012364
-0.007162090730657057
-0.016658320547343737
-0.010537146882038093
0.017377372974967945
0.014591030716623266
0.019694199465945535
0.000904551934177154
-0.030913797326096136
0.00930579702316833
-0.012889507520474713
0.029569812972038395
0.006520051149556998
0.014173794068058548
0.00898725925099364
0.01161701568250454
0.01915779602303381
0.007649738649140429
-0.0010493147340202482
0.0009514930938668668
0.019396445793472043
-0.005001743498965015
0.044485727081758644
0.013870554826862933
0.03471403408066148
-0.04078200806083575
-0.01789245891761103
0.04157460388994652
0.02619971985634033
0.005191308803927708
-0.010935031197429022
-0.008536504957819546
-0.00270206004608467
-0.0323436624975029
0.00540245818692079
-0.04174341041009133
-0.037648741286452875
0.03532561181961096
-0.028931777390685476
-0.010509877545086104
0.003894951238447998
0.0012239264556585527
POINT_DATA 5568
SCALARS single_curvature float 1
LOOKUP_TABLE default
0.04431005692585697
0.045529546513541484
0.007878825587198358
0.005007010894016906
0.0027107160989779597
0.0019461252445909106
0.0017485036277871656
0.0020118932774934803
0.0036219935711902865
0.005163017864534604
0.007039463630576011
0.009218836487619897
0.009378895697610188
0.00863237180445007
0.010800234186320149
0.013464173020734962
0.0167995552252996
0.03164650466846851
0.055394477429695436
0.09990189372655918
0.16508813607971093
0.20121224445358885
0.19877614624339404
0.16315516305403313
0.11490823684306242
0.08236122547006455
0.09380211708058195
0.14377417115575203
0.18806527131414755
0.25412210667555496
0.3033663571678451
0.29087933917354036
0.2563776526152643
0.1833170653435889
0.10923835479239603
0.1504328524270188
0.3454406171512178
0.5343890454200589
0.6615760663548699
0.7441279324676453
0.6745816552073848
0.5572923312025251
0.4275311422065537
0.22986400767134685
0.16754256682017182
0.15113030833063595
0.1593412505898031
0.18341579812745745
0.21627838049634746
0.24027685794236192
0.2421456566634162
0.22144978040880603
0.18122776330058862
0.13793912192450156
0.1098877773998552
0.09818266537755205
0.09765704033417552
0.10011315332231822
0.09977479476036875
0.10139936821999797
0.07560898165139956
0.04981859508280116
0.02402820851420276
-0.001762178054395644
0.05339631370344539
0.05464002627552043
0.009305011968046013
0.004619774893349673
0.0030648353191590236
0.0026911718400189663
0.00241893826243325
0.0027691465344199745
0.004921699520428331
0.0059155760573441464
0.007363097759934735
0.010075604405900445
0.009732086711663791
0.00962068088049888
0.012145672533432123
0.013115967566054668
0.016053275928167028
0.034501054852135594
0.062052501505411396
0.10776434113756649
0.175040197866592
0.2070542229498579
0.19668104649490117
0.16428379355403394
0.12043383063981115
0.08479532650840199
0.10216601791078676
0.15360985917502115
0.19064210949815077
0.27050568579471723
0.3127154515280129
0.28489455389593277
0.2393216449286308
0.15213683401848352
0.09009669775317826
0.15840855714455399
0.5262895494276106
0.6362350296398014
0.7162887460314677
0.7868315730358336
0.6254577247072541
0.5556334178890279
0.46515953206862665
0.2618788450448933
0.18751195278284558
0.1617778258681722
0.16727962044857692
0.19221559663981058
0.22479701134303456
0.24771927506130115
0.24615885123218464
0.21854383315326867
0.17291682676292564
0.1272005348574331
0.09849153040636946
0.08825846263953305
0.08831417568961089
0.09055047027788003
0.08764029934941654
0.08903360106831953
0.06656821244443029
0.04410282382054104
0.02163743519665179
-0.00082795342723746
0.06397120160582279
0.06576220529336975
0.011865285432261868
0.0055042480529961385
0.004379008528410821
0.003918653639077838
0.0036049005245790623
0.00391928227459823
0.0063021184414938395
0.0067214244968496146
0.0077478206190420675
0.01125715138023325
0.010582013764943807
0.011067427834368409
0.01389786914351383
0.012961829444309625
0.017045278396669254
0.03958532294629778
0.07087764062495348
0.1175858309711087
0.1845782242833475
0.2117335255343338
0.19395759291577297
0.16736779436379803
0.12812679786345155
0.09101728997710075
0.1124947665453278
0.16014292514656941
0.19039237301123224
0.2872229926188115
0.33117869135497957
0.29601194742409626
0.24256353336457176
0.14159744507680663
0.08224891563792523
0.16886896415771158
0.7628293993233066
0.7977631931485273
0.8309322617640212
0.8723053012807646
0.5595408554028888
0.5457163005200086
0.49197610094839545
0.2945206237105806
0.20768723096387812
0.1719550172537408
0.1752819512532427
0.20131149353119482
0.23335976652734564
0.25455508832047136
0.24913056714305012
0.2149116807169803
0.16469335691609652
0.11722872304156653
0.08805225870632033
0.07934628174638583
0.07960028869572243
0.0815639801827977
0.07729812167426796
0.07898119358656384
0.059800409596267
0.040619625605970155
0.02143884161567331
0.0022580576253764667
0.051992444203066535
0.05318894286820229
0.009023811445050926
0.004592653988738211
0.0029396782741612742
0.0025471359099297044
0.0022821557477853026
0.002630181419556033
0.0047229150941564225
0.005800814378719493
0.007311655023577857
0.009924070605590753
0.00964266815092995
0.009441483373285197
0.011918180242982768
0.013153514610662043
0.01603891852607152
0.033924555764493665
0.060929143774950116
0.10648047385368715
0.1736193037336263
0.20628760554936393
0.1970279627813258
0.16391946601339497
0.11939726858048139
0.08408927617765684
0.10072640240467816
0.1523880456702736
0.19045473383146116
0.2680594583213913
0.3106891753904522
0.28458482746438896
0.24042982704993357
0.1552626608665869
0.09209005786522934
0.156999299498616
0.49430283165703104
0.6166027951479571
0.7040170875424295
0.7775829024759674
0.6339213305437005
0.5566004368095958
0.4604565232400364
0.2571539225360169
0.18458961647917477
0.16025619527223256
0.16611666645778092
0.19091145747078658
0.22355172763318945
0.24667739837284486
0.2456466471975623
0.21901433524973876
0.17411890072010033
0.12870898373169953
0.10008184002112461
0.0896312587332167
0.08962686585303963
0.09190346419660272
0.08929838924246265
0.09068904333817758
0.06774333089540785
0.04479761845263812
0.021851906009868388
-0.0010938064329013425
0.03526128742997657
0.03743032128993662
0.008871491338627406
0.007657482580115917
0.004122254568825952
0.002599642069063389
0.0027957939586596317
0.002686779942029213
0.003358859761738113
0.004924760149502372
0.006797904205712355
0.009263738471615064
0.010349570615600757
0.00875424888353386
0.01033214645945676
0.014356686984536782
0.020448069868301572
0.032445476349932785
0.05090679843067038
0.09334804721485443
0.15172756976197618
0.1906850965241763
0.20018351640858142
0.17071827167946557
0.12111275433963599
0.0969593907500967
0.09698388139275604
0.1286969499581294
0.1802783735858532
0.23814741395893463
0.31170432256802943
0.33123328347438713
0.3149477227850591
0.25572035614765026
0.1536463881564388
0.14859503048909292
0.2350855613130491
0.4912621279749976
0.6546583622896253
0.7272656536368426
0.697917665146805
0.5280286156931882
0.35530674943515234
0.1919870568813675
0.14287499668565373
0.13705448077738502
0.14961581866512916
0.17303641712291687
0.20560020811339855
0.2293007287217928
0.23457909561290988
0.22381263738980334
0.19240812997164622
0.15380748547608444
0.12711355984420541
0.11357435295811594
0.11152928905972681
0.11376329115323724
0.11793739913880656
0.12083746301430437
0.09057056301749075
0.060303663020677134
0.030036763023863516
-0.00023013697295010127
0.04226624438282538
0.04359487278068835
0.007722664493967274
0.0053104905132559865
0.002805588328068579
0.0018695830955648245
0.0017150808776894226
0.0019268197754028168
0.0033704208040035368
0.00501014779966171
0.006972822798794142
0.009098937997359877
0.009411751680007846
0.008501556271426278
0.010570380995480447
0.013586515093472518
0.017279864495364533
0.0313655599302091
0.05414801421212817
0.09831485875920906
0.16256290350313019
0.19952126264565453
0.199178240723475
0.16365881386418535
0.11451323663210654
0.08309047011082743
0.09270230771696085
0.140870521298872
0.18694321127053434
0.25038502445875827
0.3029422412966744
0.2955282430796956
0.26421927375314064
0.19454071352893618
0.11595192030767448
0.14916270710911536
0.31543427655246364
0.5205489388227511
0.6573241678585197
0.7398193233910939
0.6830175325918686
0.5552415932416802
0.41604115216659276
0.22219803545878292
0.1626703889723775
0.1484395192924095
0.1574119791777657
0.18131682009328756
0.21419551450744576
0.23832101579982753
0.24094922379598593
0.22204015806679864
0.18331032933854338
0.14075529719382807
0.11290799039909014
0.10084671106974756
0.10011039605735979
0.10258627195382132
0.10303342743679436
0.10481344746997452
0.07818855547672278
0.05156366348347104
0.024938771490219294
-0.0016861205030324483
0.03326809868999039
0.036695671868969125
0.014603630872596106
0.01174091792250573
0.006915434373949686
0.004844057200283508
0.00502331961124369
0.004561689682600621
0.004477272319305412
0.005564574767464083
0.006989230308694255
0.01071777849840739
0.012682977454329288
0.010936472273892387
0.011878386641677386
0.016096425951392247
0.025677417584682834
0.038612125906142
0.05239606292338
0.09250848759960813
0.14171191621011375
0.1781270345056619
0.1993890210203817
0.18375656397992965
0.14678345665224166
0.13607265182808403
0.12680059176427946
0.1289303319775719
0.17581208781659496
0.23924750019107816
0.3391499841640634
0.39007287835964616
0.38767048190726366
0.32698309540449993
0.21039759302272176
0.16857651108786495
0.20431960275668587
0.48097795046460673
0.6364597100460122
0.6883117312608877
0.670080953878949
0.4609408958791541
0.2808070288318243
0.1710459950781134
0.12861142982500215
0.12819945774011193
0.1439280409693839
0.16729785272105005
0.19841864361349296
0.21909414939221944
0.22541500295292616
0.22375318212382567
0.201666882467994
0.16882390227006666
0.14398437645792192
0.1291401300793671
0.12479892451650482
0.1258194920304588
0.13331779507465
0.1375812195855748
0.10366071816121214
0.06974021673684949
0.035819715312486844
0.001899213888124196
0.03334686264451771
0.03636205143003611
0.01256844810942482
0.010404163828301796
0.005992997876067144
0.0040988432141207745
0.004290980734847648
0.003929600957869305
0.004056107869446936
0.0053034456953853955
0.006873583571491941
0.010147767235476897
0.011852886609882684
0.010047962426893169
0.011197250349574282
0.015425530486688068
0.023863876305063883
0.03615398457104297
0.05136548545381606
0.0922490588393335
0.14457551746077038
0.18235770821713954
0.19988208519290968
0.1794107303865129
0.13693711984866844
0.12136587134685264
0.11422403078059737
0.12635925603468054
0.1760294742095974
0.2366786958330954
0.3290948984191834
0.37076529576976053
0.3647437359852588
0.30602993616429697
0.19300621256100653
0.160962930055874
0.2106092558878888
0.48431515983653983
0.6455342552891821
0.704644493489945
0.6833714183162806
0.4852888431797083
0.30332787305443926
0.17579468215664187
0.13181819208196668
0.13025943448448676
0.14523549230406163
0.16858125830909326
0.20030877890507173
0.22226284217121456
0.2285051471952911
0.22402769899362332
0.19892164568153778
0.16413394343682303
0.13864429403360096
0.12415742483145227
0.12063759647166418
0.12216515922427089
0.12882794482682547
0.13274793157920964
0.09989909567397565
0.06705025976874165
0.03420142386350766
0.001352587958273671
0.03552826857723415
0.03763848162474274
0.00867598968340931
0.0074704369067239585
0.003998598299714284
0.002503479175543907
0.0026942875857360366
0.0026053388461140907
0.0033214026324824278
0.004907473723718414
0.006800875948166493
0.009221634630125944
0.010260291968864382
0.008698142511124413
0.010306567456133522
0.014298557276194732
0.020226240686286232
0.03227061273999751
0.05098046872000949
0.09353082361732395
0.15231587167135713
0.1912565233472363
0.20016538209472862
0.17014150806824097
0.1203075234995515
0.09562099877593244
0.09623604856949218
0.12922791307295878
0.18069195997139115
0.2385874374352787
0.3107329951031246
0.3285827517745596
0.31144112801267876
0.25189217920858314
0.15104700228203854
0.1482108756227697
0.23796993460033797
0.492098691898223
0.654813600970179
0.7282813724671686
0.6981120239624533
0.5304948188912201
0.3591507566630974
0.19349271484167693
0.1438886129835099
0.13765837523171667
0.15001429313185163
0.1734502877453366
0.20605315691417034
0.22983016599208053
0.2349945900009598
0.22375328083583332
0.19189685871838597
0.15303644187863488
0.12626382309063677
0.11280361736205417
0.11085204150631585
0.11311854349101468
0.1170815407027887
0.11990320717940138
0.08984037133226545
0.059777535485129527
0.0297146996379936
-0.00034813620914232735
0.03566074204655486
0.03774359269566056
0.008589872380849878
0.007384120751592915
0.003941955816540737
0.0024598105437826823
0.0026473720809161165
0.0025678704346732573
0.003304706925991702
0.004899949435274469
0.0068026380085917165
0.009203151298616433
0.010219662496451905
0.008673638171050633
0.010296333179486136
0.014272011027443451
0.020123488466605412
0.03219342843195564
0.05102030396947201
0.09362157780556896
0.15259478197497636
0.19152264220488813
0.2001549999871907
0.16987538900338403
0.11994805365773802
0.09501593981150344
0.09590872188179611
0.1294904814556544
0.1808875740842162
0.23880806247209382
0.3102946604577013
0.3273569852748076
0.3098104014344447
0.25009663282002287
0.1498504041367608
0.1480604913090287
0.23939127444648234
0.49251877840729064
0.6548682594713249
0.7287319610264449
0.6981583163126572
0.5316158476668968
0.36094918488885297
0.1942131919039585
0.1443725544137534
0.13794575655233723
0.1502045017258304
0.17364826441789016
0.20626849505638026
0.23007902308021735
0.2351879894715255
0.2237233845161779
0.19165555337036067
0.1526742872485946
0.125865203245384
0.11244248003221262
0.11053407119027156
0.112814952889057
0.11667796858959416
0.11946306935189746
0.08949659054975459
0.05953011174761172
0.02956363294546885
-0.0004028458566740223
0.033253066806946785
0.0364809614639136
0.013611295273907448
0.011094261291544344
0.006468792961209113
0.004483214716178093
0.004668846958180473
0.004254090656339966
0.004267334188228306
0.005432142369382648
0.006926860435226655
0.010432622706602107
0.012275566585514923
0.010492213637386722
0.011534610242129064
0.015763465752377154
0.024791137450270208
0.037379523292403787
0.051844299540312465
0.09233182127873718
0.14306218170963542
0.18019323170879809
0.19965470158810183
0.18164899931582176
0.1418886605703689
0.1287670205083638
0.1203846675616373
0.12737767406871936
0.1757214482324102
0.23772956561949238
0.334192644206396
0.38077681129041474
0.37673661014220133
0.31715812813870653
0.20224741690589712
0.1648753109856629
0.20710811942027985
0.48268807088367555
0.6411947953635146
0.6966147198787124
0.6769272772123685
0.47291711306518874
0.2914315272762922
0.17311397231932057
0.1299923812952048
0.129092089650455
0.14449572923760037
0.16785134788354014
0.1992832369990853
0.22061231225467373
0.22692415774197877
0.223914938883889
0.20036741616615714
0.16657464682612194
0.14141455673995457
0.12673564925200215
0.12280122094656656
0.12408064303258981
0.1312063661257118
0.13532152386245822
0.10190656075611437
0.06849159764977053
0.03507663454342669
0.0016616714370828456
0.033438130110669505
0.036349086664714
0.01206531550463466
0.010065509931293818
0.005759932954115053
0.003910638998546381
0.004105770905196511
0.0037719328855779074
0.003957401970677623
0.005245101911226722
0.006852470675789578
0.010015952641456634
0.011650785510602371
0.009844103667820178
0.011045761764250973
0.015268306247229663
0.023417862926408926
0.03559057153177621
0.05117668637752999
0.09225318941788269
0.14535037857683897
0.18340548319272895
0.19997216875587984
0.17831778379568733
0.13462611252082293
0.11789875833940915
0.11146483194734708
0.12609859542266913
0.17631759322498533
0.2363749083573182
0.32667950480032243
0.3658381747687921
0.358757020165155
0.3003384875558218
0.18829346202106415
0.15908030415070162
0.21256649179536768
0.485051297830384
0.6473759441029967
0.7082518059696858
0.6861758361816453
0.49116608050635385
0.3093552506489176
0.17729667654474082
0.13284831662485613
0.13091151581207122
0.14564919824944894
0.16899302983549144
0.2008523551328449
0.2230856733321999
0.2292703897837376
0.2240598975342253
0.19818861217082223
0.16291949334371933
0.13727266820523032
0.12288610464531183
0.11956259643476698
0.12120136950455367
0.12761290483148943
0.13142530377081915
0.09886475577043113
0.06630420777004312
0.0337436597696551
0.0011831117692670812
0.03431565363297298
0.03675222825957771
0.00990381061159714
0.00852185928864158
0.004703780332507761
0.0030606223659518806
0.0032645036851027386
0.0030684176529275817
0.003551078337134606
0.00501997591202537
0.006798109458014664
0.00949192841250003
0.010785382703863425
0.009067267968219182
0.010508184093098406
0.01464355867019449
0.021478080046442388
0.03338789405523568
0.050763289159485886
0.0927119701303007
0.14922524212948501
0.18808535542324395
0.2001979433771101
0.1734049128418007
0.12530956280364997
0.10367821517164283
0.101138702472667
0.1268719183727344
0.17854168759612624
0.2367131879064799
0.31657564019500467
0.3435174940492305
0.3308867812118411
0.2726009486273853
0.16596040642606322
0.15139441748845978
0.22453207071262407
0.48841038434218453
0.6532150736564677
0.7217674643879123
0.6955338803384141
0.5158902364807415
0.33818292131625916
0.1858218882577616
0.1386933368826128
0.1345327469426412
0.14796936810687086
0.17133987481797863
0.2036954415937769
0.2269731571866189
0.23268578822977798
0.22400387657698134
0.19462152896315288
0.15720677345702208
0.1308774844601629
0.11700322593702597
0.11451962645527743
0.11657857150794687
0.12164950258178214
0.1248994943214065
0.0937509504527089
0.0626024065840113
0.031453862715313696
0.00030531884661609554
0.03996752137275722
0.041476362662249744
0.007665991563422056
0.005773001676764367
0.003004580387428268
0.0018722830882828966
0.0018098169791436144
0.0019454499212096293
0.0031818589975173544
0.004883547198673683
0.0069033463242789755
0.009025345540792333
0.009534645410008168
0.008427239343542586
0.010371164737857994
0.013755133042860669
0.01798632804507002
0.03126992344031568
0.052883022091886334
0.09661669489931025
0.15953383729796783
0.19734481385404695
0.1995849048688021
0.1648374971356597
0.11485839106855437
0.08501863365256361
0.0922396423705543
0.1372727251413523
0.18535671777377863
0.24625165347753708
0.30358515336981207
0.3028589294000234
0.2755535441204964
0.20959090425783528
0.12491379445162688
0.14804239742065523
0.28623354703604015
0.5085015361837565
0.6552195986725702
0.7363537978037386
0.6908104128305702
0.5509749658829728
0.4010460017277851
0.21328629663222662
0.15693980688611656
0.14522316050417117
0.1551487560195609
0.17887737164932432
0.21173854552180707
0.23592093054329677
0.23939508205412452
0.22266601441322614
0.18581150589297557
0.1442145350077742
0.1166381456585865