# vtk DataFile Version 3.0
vtk output
ASCII
DATASET POLYDATA
POINTS 5568 float
9.488051377737508 -0.1717923196778245 -22.880870318602245
8.58242723181396 -0.1274503143647573 -21.387036316348567
8.059651310372097 -0.09253498060651717 -20.635179663301113
7.535142829001912 -0.06445343231906416 -19.885436293682616
6.998607039302033 -0.03881805237122017 -19.144827952308102
6.4568284626215915 -0.012157019265478061 -18.406929959297294
5.914659054059338 0.01383338629611219 -17.667682696469154
5.372421472929149 0.038207307598313325 -16.927430309570905
4.831692129107255 0.06115696216632215 -16.186234713840015
4.292349879529875 0.08513483496576825 -15.445803847087904
3.7537096903897833 0.11051873153346331 -14.706762425060266
3.2159748913285053 0.137778959162813 -13.967145794192732
2.680253338365892 0.1696143867424897 -13.225214857347067
2.148391930458188 0.20665469484501012 -12.479779821881673
1.6200765555778474 0.24996456495062 -11.730323915358047
1.0965561616174284 0.3000837560972725 -10.978752967823173
0.5791462125453936 0.35695302068026447 -10.22637969793648
0.06187960254355551 0.41746797099419564 -9.474921753187896
-0.4631962126339251 0.48445989010641677 -8.72710298341011
-1.003420721425421 0.5563675979898924 -7.98654937381761
-1.5605434255982567 0.6197277774055127 -7.259915060720607
-2.100101770103795 0.6407960140706681 -6.55670661898756
-2.584721645980679 0.6109478033307131 -5.843973368578247
-2.952115627195831 0.5055718687489443 -5.105707687404566
-3.150813928888759 0.3203659990695519 -4.347236181494163
-3.212773354468049 0.09152708842485505 -3.5631346225421674
-3.2008321063578986 -0.13844663689081052 -2.770396320665265
-3.156853645712142 -0.34163692924411937 -1.9693295753138869
-3.10210723502915 -0.48540854347894535 -1.1528710987249988
-3.0424040748958188 -0.5470111058958119 -0.34008954612929565
-2.98392379496203 -0.5088729177093633 0.4592065415149129
-2.9346104945826834 -0.3419076340391159 1.2165130943453768
-2.890507122973053 -0.048961767540315615 1.9025870465955
-2.8478527735682495 0.3596625783442628 2.505152297170034
-2.8117581221787065 0.8636059023267042 2.9988745418651983
-2.778685684802036 1.4500281967028101 3.4247179879486067
-2.7441201148744274 2.104915842575898 3.8010049709632385
-2.7070188724438062 2.810023920009995 4.163996562914862
-2.6893247298833307 3.5143630406257294 4.551201184793898
-2.7776346975415698 4.068133399332167 4.992372515108257
-2.944038108564362 4.3838938835595815 5.494140642420368
-3.1640290175198573 4.395952925395172 5.948171106008967
-3.3549723837864622 4.177583181884153 6.3720808878093695
-3.5281354410878403 3.6456510813622334 6.684564199223899
-3.6337087336861944 2.9052872980311384 6.913616412503381
-3.6362091611961183 2.048710335893864 7.067094911970816
-3.526349343863683 1.1478236750665949 7.161068082044142
-3.3085570995141023 0.2527403105309046 7.222458645400866
-2.986894555802114 -0.6007266196067136 7.284927060509657
-2.567769239104795 -1.3871299694691936 7.377932223295922
-2.0701361447312383 -2.074171183536995 7.512773889802596
-1.4941948585460971 -2.651651998648946 7.695449678049878
-0.8547873628560089 -3.09845590316164 7.935200706970901
-0.1729346563893549 -3.4159560754614473 8.233269473976629
0.5367375955746814 -3.621674491912443 8.582720785163023
1.2806612741690013 -3.724201393387896 8.975651657016972
2.056779319327784 -3.735292768390293 9.395809609428207
2.8639082986857556 -3.663745239229448 9.814054599732927
3.691058113780162 -3.513563897973261 10.196725675443163
4.535260856831178 -3.2864618086252664 10.525905820463278
5.411399977192438 -2.975243349865776 10.795844313686292
6.355430109182797 -2.5551532561568937 11.00370395809222
7.334830724242379 -2.021013908003924 11.126400176793313
8.252734070538711 -1.414460743725748 11.159882516348537
10.321598368303952 -0.8427883950207183 -21.890751469997703
9.284533693042924 -0.7345653376707313 -20.36937649262255
8.724739413718225 -0.6764881693692575 -19.65720679180119
8.15845700827293 -0.6251883218509731 -18.951430713217675
7.5763510788154464 -0.5769667004511829 -18.25830292117729
6.988951214523377 -0.528683748531438 -17.568163504350178
6.401259935660517 -0.48097589842850064 -16.876008569533656
5.813581764226644 -0.434146000348796 -16.181847031929273
5.226756804644172 -0.38751437655957577 -15.486041493557476
4.639802288427787 -0.3391051599776131 -14.79131799348508
4.051726078735433 -0.28770616559548046 -14.099093158163653
3.4630912296375214 -0.23280471805445968 -13.406825031653653
2.876302202144688 -0.17512205574623751 -12.711706400715622
2.294389582080024 -0.11345390544471111 -12.011591188731977
1.7172943724428253 -0.04642417632727852 -11.305257599831597
1.1460659893329566 0.023492866057812326 -10.594310023784564
0.5791633643159441 0.10235930420687023 -9.882004507729624
0.0130531031583766 0.1871569316550233 -9.17071448320099
-0.5529149918060398 0.2754462298470162 -8.461571036586726
-1.1229386987138321 0.3641108480716062 -7.756441894832936
-1.7045712633301897 0.443380500066847 -7.064005556459205
-2.2670797542102474 0.48217781208902555 -6.390580360603735
-2.7751440840481054 0.46966098256856637 -5.716439623197741
-3.169568171554134 0.38084645530280825 -5.0239214004827835
-3.389272141745409 0.2204520400994474 -4.291038606453359
-3.467854732111746 0.03306726685672376 -3.498590932960073
-3.4880994002760977 -0.13216388419146996 -2.677748493736155
-3.496366276914289 -0.24081733665956498 -1.8382695105991473
-3.501276754835194 -0.2591356266805161 -0.9792621473370812
-3.487044694424841 -0.1599667252889469 -0.12736907147881982
-3.4479653791583917 0.07288963850868319 0.705236822763151
-3.384486204017247 0.4468672424335991 1.4860867094262116
-3.297086705602394 0.9604603738243515 2.1998786647311976
-3.193589034992643 1.6177453278149754 2.8869225577142874
-3.095277118358157 2.373674883587724 3.4981008047569144
-3.0110341206985405 3.1926684150976414 4.026456393290918
-2.943995938925393 4.03369267406521 4.4922306449034615
-2.9002040737822 4.8546591620898765 4.932244648298925
-2.8940394251140615 5.606032040019428 5.38248292367363
-3.054597256561646 6.179565598409213 5.941649139691818
-3.336918730790213 6.440477652452224 6.6724274582473635
-3.7836219434975638 6.164640394592495 7.3523060801018465
-4.16441881308306 5.481834332648616 7.882294533951212
-4.475936386908872 4.412372114413741 8.112441413421216
-4.620881731502788 3.2620309597781487 8.17831916440863
-4.575219822885908 2.111527804838454 8.140035828790516
-4.35583456352029 1.0423898086579249 8.055516671303481
-3.9784819665078346 0.03334723552789365 7.974509409888562
-3.457764971451219 -0.9195586979783443 7.928112064147745
-2.822422182615755 -1.807587155545456 7.9581232077737365
-2.1283023871353026 -2.568059053604376 8.08305497510027
-1.3686212897585393 -3.191479992366738 8.288888359470741
-0.5760367740635066 -3.664648599042549 8.555468170788334
0.21745189721040048 -4.012289724955022 8.861741537729081
1.0073814337016875 -4.25790592969985 9.200305645200304
1.8075447221596965 -4.402282660857473 9.5696764387907
2.632241459262881 -4.456843134655717 9.960216289640114
3.4850144144324804 -4.428290411289404 10.346822292483797
4.358129821204196 -4.3158768045201015 10.698568001406269
5.24966631859848 -4.120131279842216 11.004929738802339
6.187995144945823 -3.830733690891025 11.274388006491588
7.215969057587 -3.4201665316534404 11.509326726206893
8.277212309852908 -2.8935295049405787 11.693588335817198
9.28086667217508 -2.277442561261383 11.825087544616208
9.45550164693483 -0.14559014767163275 -22.919534128020878
8.554820714178145 -0.10367150873076525 -21.426666929754894
8.033454929317113 -0.06966235286829953 -20.673191244311873
7.510534156780441 -0.042489487786647975 -19.921647231909418
6.975724879952369 -0.0177375151353387 -19.17909026761656
6.435674210773017 0.008078167633082962 -18.43923358080397
5.8952293063634205 0.03321954995086819 -17.698055348320636
5.35471316604304 0.056715596841316954 -16.955912987309887
4.815729327384532 0.07873963321010985 -16.21285441529794
4.278188350222209 0.10176317179032951 -15.47054479305774
3.741415462285574 0.12613135377041368 -14.729574939824333
3.2056009324197126 0.15231297867298577 -13.988004366127823
2.6718078820107687 0.1831407456703332 -13.244142958260111
2.1418394814297996 0.21922163976606424 -12.496841188329112
1.615371891139485 0.261608357399375 -11.74561145670134
1.0936630031356862 0.31095842916963756 -10.992373491345472
0.5781302356113771 0.36697433041453364 -10.2383516500114
0.06271492800272238 0.42654700234521453 -9.485240164726871
-0.4608053843381805 0.49271083609300503 -8.735842016893288
-0.9998907557070642 0.5639650299647104 -7.993857032433987
-1.556076060044952 0.6267032270098294 -7.265846660642411
-2.0947565019108243 0.6470766160266064 -6.561439835477865
-2.578475258537745 0.6165425465247785 -5.847146544148565
-2.9448133227570588 0.5105020002018115 -5.1070211289689205
-3.1426837472679265 0.32430695137560256 -4.347514174553151
-3.203997426483815 0.09383378565588829 -3.563689844770665
-3.19080648761724 -0.1386890399330708 -2.771904995552197
-3.1447946791853654 -0.34560430614109844 -1.9720252892212038
-3.087726141394757 -0.4942756505822895 -1.1567303460307072
-3.0262420909563126 -0.5620550034218827 -0.34478765545263446
-2.966973059608277 -0.5311960382730468 0.45407121554122565
-2.918133113638691 -0.3717030790583811 1.211268012771451
-2.87554497293314 -0.08642364521122736 1.8969077754186645
-2.8349566241804522 0.3137483985346768 2.496584141691123
-2.8009427850795827 0.8089808150133402 2.986041017354129
-2.769606826568871 1.387163290943612 3.408119185349651
-2.736178801830979 2.0352659081064983 3.781108609984344
-2.6993273661937875 2.7360321272053123 4.141240875757782
-2.681203344908704 3.4385861310484693 4.526075674979038
-2.7668958210141663 3.9917171612154596 4.963015122242109
-2.929457187361485 4.309407658784256 5.457241984814733
-3.1429010510575845 4.330023049521924 5.904945742814058
-3.3285608622511584 4.124750259246847 6.326122571145517
-3.497576022608888 3.608823556499152 6.640750185087251
-3.6018817329581325 2.8816087433247493 6.87496249778398
[...]
CELL_DATA 87
SCALARS quad_param_group int 1
LOOKUP_TABLE default
3
1
1
1
2
2
1
3
3
3
3
0
0
2
2
2
0
1
0
3
1
3
1
0
3
0
3
1
1
0
3
1
2
3
1
2
2
0
0
0
0
0
1
1
1
2
2
1
3
3
2
2
1
1
3
3
3
0
3
1
3
2
2
2
3
3
3
1
0
2
3
3
0
0
1
3
3
2
2
2
2
2
0
0
0
1
3
SCALARS single_component_feature float 1
LOOKUP_TABLE default
-0.05349342376581903
-0.1774974251065577
-0.048651109045981564
-0.06989882595010581
0.0881187408559781
0.06539363513837132
-0.10045489317904241
-0.032520984762916344
0.017189266170925685
-0.007517558816509458
0.035955740679214934
-0.037053500587586316
0.1134591895436908
-0.024488340467005973
0.014169421211540538
0.17533752212681952
0.11073324131645981
-0.11044122509343449
0.04974528315259939
-0.052367155065107196
-0.1571195572441914
-0.015792278688205923
-0.1809869360396864
-0.1446080509251164
0.010673788623569854
0.03379768219065843
-0.03635879773479474
-0.1793859722356395
-0.21374408167005193
0.18689028256994294
0.016554562636440832
-0.12156767103405493
-0.023616406161572123
-0.13516660097204763
-0.1794308182577736
0.048302506441639075
0.07602657038728762
0.14595461732629322
0.17319797056970768
-0.019821834565202284
0.04732253870508557
0.04568307477809739
-0.13102871990884063
-0.11550637400762748
-0.05613826779420515
0.07198058087168607
0.10863092290498935
-0.056341193540542976
-0.06811561559821076
-0.06455984135574384
-0.0389814284405217
-0.0046052047058284876
-0.03143283392989349
0.014920205243605853
-0.09329744043564979
0.6482387329519967
0.058926594504234875
0.123128916528665
-0.1837882010270127
-0.13824522075960158
0.09360954995719103
0.1780514840890966
0.11683337492456429
0.11853767959288028
-0.10820200715320034
-0.02312046710290995
-0.07098792669889688
-0.23701548537911404
0.16887471557866207
0.0984357247028408
-0.08935541944569524
-0.16382183379418408
0.1513342044964896
-0.04498843264307996
-0.017852770200146542
-0.06941492825499329
4.833075139678081e-05
0.07593560407541104
0.12198404216113104
0.12911170649915632
0.165923214778339
0.12102748296591964
0.09986084477008018
-0.09808652939219928
0.059425799772499566
-0.06423880236171496
-0.08821695524694242
POINT_DATA 5568
SCALARS single_curvature float 1
LOOKUP_TABLE default
0.03990533591305781
0.04166547934279752
0.008762944942884092
0.007097463940168319
0.0032041437964885487
0.0018159303723759505
0.002000286344220888
0.002134097474619666
0.003081835353246978
0.00488602823886782
0.006851380404217267
0.008751686195651483
0.009765351865816436
0.008697325881610771
0.009448402533014601
0.011977941769277932
0.016304169016845435
0.02841279906338706
0.049580795388145533
0.0950496543025268
0.1592926044966951
0.19820116646545535
0.2008034551338329
0.16670557416205567
0.11791841696036087
0.09538882413457968
0.10714076355269966
0.14692028556485268
0.18767644427743208
0.22253998117346196
0.2541274215085905
0.24776853893654954
0.2187332327556432
0.16750650436172015
0.10753861460049047
0.1454317142976986
0.2722119691938207
0.5158235063647714
0.6488176390997266
0.68968933380692
0.6348230427294962
0.45468024422757414
0.3041400641114425
0.18292328644526956
0.14877929308687185
0.14055659508789267
0.14723485952638599
0.16507072925744729
0.18937808841626588
0.20721924110567858
0.20960634123821356
0.1977152617753352
0.16976773870504464
0.13864838364776114
0.11781586096871031
0.1063133762544538
0.10344745355749889
0.10334312545753092
0.10273058662314236
0.10253623124397068
0.07601201688533106
0.04948780252669144
0.022963588168051816
-0.0035606261905878067
0.04762194587527526
0.04942919765731492
0.011861517941956959
0.00891721031518204
0.0032035127735226075
0.0019893504828397872
0.002791590451059284
0.003358061150093137
0.0041116966243151835
0.005909741721175402
0.007494665590287665
0.008831264736779181
0.010550291089019939
0.009961882587654985
0.008348164171540549
0.00767223588023953
0.010552056551933649
0.02148670184358093
0.04411852317229283
0.09442050323057134
0.1662469307335911
0.20699979543952512
0.20634952698521808
0.17607157284562502
0.12897567094305018
0.1146689521608509
0.13660291087317059
0.1653262154035312
0.18330009641460906
0.17656269337972014
0.16329742351841242
0.14097410961892015
0.1103373064656304
0.08443370055412945
0.07166677111142139
0.14321661832845223
0.2541013455596038
0.4041789055713086
0.4787582093238986
0.4619056073046676
0.38926399114573285
0.26884217541519617
0.2014327458604745
0.1608654935818043
0.1493870857048689
0.1404459639126223
0.13834422893088316
0.14443555402482386
0.1550563722504438
0.16088260300575852
0.15586551330234444
0.14693101424865995
0.13070998455256813
0.11707462010213454
0.1097117971117347
0.1020462860413507
0.09711664017972647
0.09275737440134887
0.08624087731665216
0.08183641589917147
0.0594263862034011
0.03701635650763073
0.01460632681186036
-0.00780370288391001
0.0396792337631556
0.041438032007417996
0.00866535198679514
0.007031558429247019
0.003212847736031289
0.0018279345472430185
0.0019930448614852384
0.0021144875377494088
0.003068326288357734
0.004865148748429174
0.006842717716667369
0.008771054678508177
0.009758188124593345
0.008668659856800754
0.009516309753757656
0.012156581218822123
0.016537198455093848
0.028690984436975497
0.04978803045715755
0.09505795066100532
0.15902387548582078
0.1978843066825139
0.2006894504948375
0.1665979541883185
0.11767555759442873
0.09469350542030391
0.10583188313953117
0.14580038201029363
0.18743798069694234
0.22436044228480095
0.2584680186006818
0.2531349935158259
0.22448084528154386
0.17221172522749256
0.10971280516613255
0.14558948483413223
0.2719220057820319
0.5170483545007547
0.6521820598837803
0.6958435821548403
0.642451521704968
0.4631455209604161
0.310306146038304
0.1843845100355508
0.14882196453008895
0.1405806392258097
0.1476580900459328
0.16601736617701632
0.19102608883659813
0.20940451027298068
0.21200929067283578
0.1999287513017648
0.17141312030064262
0.13949591638779435
0.11809648575357629
0.10645905442188304
0.10371182191581334
0.10381836662112381
0.10347719850358517
0.103496167915823
0.07678506978602055
0.0500739716562181
0.023362873526415653
-0.0033482246033867957
0.04071839770372038
0.042483378956801696
0.009111588227685069
0.0073238926383910954
0.003178894298640402
0.0017866374304178474
0.002042804980684794
0.0022233606877030514
0.003149743729412015
0.004973280134963295
0.006891888902758971
0.008697476326005404
0.009802269049240123
0.008805670836279245
0.009228438906748624
0.011375132879332497
0.015515392693045497
0.027470323885224225
0.04887413301129341
0.09501240495797875
0.16020492087744087
0.19929148217200512
0.20124334770761776
0.16723829717841132
0.11888322234915218
0.09783012493823393
0.11156587127338415
0.1505317190656286
0.1882554912127582
0.2163639603369515
0.23989513657919537
0.23031902754859504
0.20022043407797763
0.1524996378224634
0.10064693177513793
0.14492153648650943
0.27237951623712203
0.5085851726388029
0.6341954989717371
0.6661057732686921
0.6065027299030656
0.42606750764546225
0.2847549547281774
0.1785095490540672
0.14878098950502788
0.1405553990825969
0.14588733772023774
0.16196428451345807
0.1839938051660516
0.2000559793300732
0.20164882621669913
0.19035235166482187
0.1642624521154148
0.13577688712638872
0.1168430742916092
0.10580724427838556
0.1025608448476686
0.10176764690341729
0.10025695888681486
0.09936517307721103
0.07345982991985263
0.04755448676249423
0.021649143605135826
-0.004256199552222575
0.0359831458319762
0.037718774280344994
0.0070395352322834975
0.005350563507981727
0.0036419328826177086
0.002595094813768191
0.00304031731826512
0.003135664502014436
0.004231084702465742
0.005658800625055196
0.0072213909514285725
0.00981273845489999
0.010160734617207063
0.008445256494455931
0.011875278156271105
0.017307317715129743
0.023095229210871815
0.036419610727769954
0.05533116463085042
0.0947902061444575
0.15156324106105934
0.18998425778718755
0.19993575566718924
0.17164839731880005
0.11871303050840326
0.08183432346058236
0.07371411418223241
0.10982136386953216
0.17017210453870785
0.27129827014858826
0.4082759476896876
0.44782773863280234
0.44518039596473485
0.3701682356975071
0.20559266784446154
0.15406093968501217
0.20448663884135207
0.3256294954601643
0.4888189917044519
0.6843194634134021
0.6928087504698404
0.637601986873281
0.5357611259883571
0.27096966002828476
0.16849599898970022
0.15199440471893003
0.16870850538760462
0.20038035731889484
0.25041667777280924
0.2868215026470555
0.2911348702706161
0.2706519946380459
0.2219266210515452
0.1631607427076531
0.12464759934956691
0.10981030108692251
0.11163211547387654
0.11915379282110956
0.12751503820579757
0.1346778999294306
0.10193704977209772
0.06919619961476484
0.03645534945743195
0.0037144993000990667
0.03626103697503203
0.03799865777974887
0.007174107104780732
0.005606088257522184
0.0035515475635052797
0.002431931912442366
0.0027604535470405916
0.002824351347109142
0.0038999236323182637
0.0053948788299123
0.007088258181113823
0.009587504407704802
0.010023623527008876
0.00840177738623507
0.011427432295290293
0.016431985118752355
0.02200615527349072
0.03516279310998667
0.05445654742106872
0.09490084382562475
0.15278305624173147
0.19114744789188134
0.19978623219372574
0.1699977435852997
0.11762221825933612
0.0829818007545315
0.07797682209525213
0.1157357331795603
0.17412886587071277
0.2646848853338953
0.3798070733699341
0.4097360708144917
0.40069266786681734
0.3273253922653193
0.18396231048491707
0.15161031894319635
0.2239357180421677
0.38231894078684864
0.5500434594246016
0.7096989852254848
0.7025571848864092
0.6218890947335326
0.5001998074390251
0.24996332930729437
0.16208499316767627
0.14825825796442588
0.16364812651924612
0.1934623245155236
0.23870762849961846
0.2716605710861614
0.276385222020332
0.2577400093104707
0.21297052490987983
0.15929328595950634
0.12375704626958065
0.10936156018148373
0.11026061063604467
0.11635128138854944
0.1231427745035617
0.12900246008100683
0.09735936168408252
0.06571626328715821
0.034073164890233903
0.002430066493309596
0.04241653626598804
0.04419168263776882
0.009824894978238546
0.007758210980054863
0.003150629308372826
0.0017789793971434355
0.002184093253511308
0.0024666725738074855
0.0033501689842281176
0.005187633950349027
0.007009249756006257
0.008646406106561906
0.009924766113327514
0.009054952429665987
0.008865457042196058
0.010265580146756121
0.014053482848449558
0.025719935289445005
0.047540903755555856
0.0949054141521951
0.1619113129617391
0.20138795903962722
0.2022933027400604
0.16888813244668047
0.12120304154196998
0.1026280766149303
0.11960371834484254
0.15640230260259047
0.1883770885601421
0.20487842732358516
0.2152807976474606
0.20071252050402497
0.16947138536765946
0.12812531130960517
0.08965312232391501
0.1440809662679162
0.2698592027745213
0.48535911897242645
0.5966870307239971
0.613233783001255
0.5463250460326124
0.37470421990459485
0.25431182222710697
0.17203855539638588
0.14912802614391507
0.14072241772563376
0.14363267970189247
0.1565453859706853
0.17473040077070928
0.1876410910674401
0.18755582056465503
0.17718409298268034
0.15428901109080942
0.13043412147273986
0.1149443700478464
0.10481443770089151
0.10094786287422598
0.09897572751624416
0.09588282049688092
0.09380123468229369
0.06898895998400072
0.04417668528570774
0.019364410587414768
-0.005447864110878206
0.0389731563545593
0.040727744643749134
0.008359284926788231
0.0068151253652988285
0.0032457355808938547
0.0018784377111983155
0.0019893914337976277
0.002075075033100127
0.0030486139021270323
0.004815748914536368
0.006825250415411775
0.008846092062202767
0.009746246331207674
0.008583816539522136
0.009751577251330393
0.01275361381009111
0.017313596758427034
0.02961696191280587
0.050473648040876465
0.0950767215599081
0.15813064865023724
0.19684570657875777
0.20035984995470152
0.16640457517359372
0.11701127366375044
0.09247480461821511
0.10148984778358536
0.14191315355338346
0.18642650172199376
0.23040547384463622
0.27339425864638117
0.2717389139664131
0.2445920417629914
0.18884300023739295
0.1174396133610161
0.14614157468976274
0.2700806546579395
0.5176317414218876
0.6597552686838818
0.7133710595372786
0.6650787988061033
0.4910800435508958
0.3323553897906007
0.18985588500500528
0.14915435131280547
0.14076834961705692
0.14917028356911424
0.16927687502012803
0.19671777497027895
0.21692754805233053
0.22019638312998427
0.20743687674271036
0.17696185660240202
0.14231793963622388
0.11900921309459066
0.10693182391112462
0.10460104028803548
0.10543498891863515
0.10601782311130413
0.10677094998542627
0.07942362791484556
0.05207630584426484
0.024728983773684127
-0.0026183382968965885
0.03726563105980736
0.039009818099807025
0.007616681143283295
0.006178787979770311
0.0033808939488190635
0.0021186870570368914
0.0022359970587049307
0.002271074347043727
0.003299912982765546
0.004939230046555321
0.0068847862963058
0.009168453008437442
0.00981742004075215
0.008421064539336451
0.010553438669943073
0.014608989520571136
0.01970147157825978
0.03245412772027804
0.052536764597040785
0.0950491700427253
0.15539844927876761
0.19381749386096658
0.19979059163661278
0.16733360733199282
0.11638577786618054
0.0867521931465427
0.08871007623748677
0.12884909109064502
0.18135579225662068
0.2485868499058311
0.32401907861135965
0.33636211979399544
0.31640573328787697
0.2503926958673128
0.14650255675404064
0.14825705249003432
0.2546247480344268
0.4786811346541553
0.639852026009918
0.7351606035205145
0.7043946733297155
0.5686921380530608
0.4137887590318318
0.21399550634411196
0.15290818177734744
0.14292724188666792
0.15517240851415762
0.18050807137550554
0.2163617477737191
0.24265709301783017
0.24727755829080672
0.2319282361447364
0.1947329813052099
0.1509835918878263
0.12159713650153264
0.10826297088920364
0.10742080009801991
0.11074108805078982
0.11435486472446041
0.11757749586309202
0.08814000455391748
0.05870251324474293
0.02926502193556839
-0.00017246937360615444
0.03802542024698166
0.03977429802363618
0.007946956937983252
0.006489217197743387
0.0033077587595670348
0.001985399089894007
0.002060871168068569
0.0021095652813335644
0.0031118838474594214
0.004819921440487426
0.006833945066518993
0.00899222415116754
0.009762510767167562
0.008483738751774293
0.010141437925748575
0.01368416551041555
0.018516099678305767
0.031048120071645268
0.05152122364943934
0.09507892892637364
0.15675230719396593
0.19528904777518344
0.19999366486462064
0.16659807305411786
0.1164318154221033
0.08937230991911657
0.09490546707275639
0.1354965944523296
0.18422534825861372
0.23966837369997948
0.297976575257302
0.30284587421926595
0.2788123015341572
0.21774205972467417
0.13099786053297727
0.14710423349796328
0.2642776531356215
0.5062836067908669
0.6586833806557564
0.7306453800086877
0.6907499933950684
0.5323212711789894
0.3710450231551699
0.20047904297028052
0.15043321757688602
0.1414992643772575
0.15189773933961898
0.17468471328857885
0.20618627704318462
0.2293688664837332
0.2334596763425246
0.21949501333662197
0.1857721575994483
0.14668476087842283
0.12035459443917808
0.10762565239966056
0.10600477302522739
0.10804281668302146
0.11011674691027987
0.11207537856499546
0.08370081223541308
0.0553262459058307
0.02695167957624832
-0.00142288675333406
0.03680260105903001
0.0385438369203341
0.007415126351555942
0.005950715354979012
0.0034433704938818476
0.0022338379938071037
0.002421784458285108
0.0024604934067414667
0.0035082898531270546
0.005091954818668249
0.006949192133021394
0.009320856439651368
0.009882981257494523
0.008397068616896913
0.010882684416311041
0.015315162186692533
0.020599558662102085
0.033514775558782274
0.053294195151040884
0.0950055177938384
0.15437596101611217
0.1927458050974385
0.19973170523523517
0.16820382638262252
0.11667436675710323
0.0850714637233251
0.08428971726326652
0.12371408898190396
0.17876955227651767
0.25511107474300976
0.3449656210732718
0.36368408196000884
0.34751625096952377
0.2781676084120644
0.15985979995092686
0.1493425459954132
0.24452841688249535
0.4469436676788729
0.6128722014233486
0.7303420136515392
0.7075554033152368
0.5924346103677184
0.44789558007846236
0.22648300973561053
0.15575986024641067
0.14458037462499118
0.15812043332837855
0.1852868334592639
0.22466188222141625
0.25345067617294414
0.25826463366292984
0.24172788745130622
0.2017126316415916
0.15423305642184595
0.12248061397079875
0.10871387713747838
0.1085146617424369
0.11287098151574153
0.11769582051623186
0.12192098613197702
0.09164516546395667
0.06136934479593631
0.031093524127915953
0.0008177034598955968
0.03916416153241379
0.040919890822005964
0.008442238888734528
0.006875457074348681
0.00323590380200048
0.0018626636037431367
0.0019869844236428437
0.002081826875855053
0.003049924092054813
0.004826161758480861
0.006828358416032607
0.008823411136658348
0.009747775264175905
0.008606020450678348
0.009684106292284321
0.012585563427651573
0.017095437514643066
0.029356912603680188
0.050281739134910394
0.09507282367316133
0.15838133565155027
0.1971348893853715
0.2004448099958529
0.16643327508107952
0.11717512515263594
0.09308224931470704
0.10270539355411652
0.14302831436273244
0.18674404551020968
0.22871062323713537
0.2691269085884184
0.2663970438103322
0.238788646482021
0.18401715922360964
0.11519130977544986
0.1459819669071633
0.2707396635763196
0.518043736582005
0.6582256048010589
0.7089266264171457
0.6591749900408816
0.48329478960835515
0.3259238242406767
0.18821889446809678
0.14902800473105615
0.14069681048592644
0.148728147966828
0.16834387432518783
0.19508643465932604
0.21477500556300616
0.21786713493727985
0.20530598714751083
0.17539208464800224
0.14152521532231124
0.118756210917132
0.10680093782682737
0.10434985200885569
0.1049755106267825
0.10529562701241145
0.10583886963875476
0.07867244229642492
0.05150601495409508
0.024339587611765245
-0.0028268397305645926
0.035800955856690096
0.03753511931394316
0.006929767122024349
0.005075768291320089
0.0037479312661033207
0.0027836454248065553
0.0033594695894858433
0.003498082140812726
0.0046140186760631535
0.005969664258967223
0.007390180271984758
0.010079905803364072
0.010339507428484244
0.0085464178908517
0.012413915231827796
0.018309881728802
0.02432548559218578
0.037802952246451055
0.05628196547990084
0.09463671359618213
0.15021387948759587
0.1887609349874646
0.20019611027187778
0.17366807009499355
0.12024789422896588
0.08105500139059998
0.0696830705555747
0.10366803285386712
0.16551087387940266
0.27757844073126103
0.4414691085672365
0.49264613036267163
0.49785172787751397
0.4229958189979624
0.2335802735388995
0.1581054615866276
0.18037550143596834
0.26255944665958975
0.41490177728291777
0.6478823996013269
0.6779003036985934
0.6474649909705985
0.5668655348253977
0.29644212982022533
0.17702258891981423
0.15697572443451813
0.17515208787885403
0.2087453045745666
0.2643520709273403
0.30488132612696206
0.30838179005899224
0.2856336875104185
0.232194664758085
0.16742424254448018
0.12553974810354418
0.11025655764181207
0.1131841929508753
0.1223972355226608
0.13255678914062655
0.14120313602486423
0.10719638673422638
0.07318963744358853
0.03918288815295068
0.005176138862312829
0.03864905177537758
0.04040169813277542
0.008218352867993939
0.006709143664342223
0.003264252302036882
0.0019092584704588718
0.0020010663587300133
0.002072326144450082
0.003055335274443979
0.004805012596678983
0.00682326027987854
0.008889239605874753
0.00974696814809498
0.008547560608352881
0.009873642064324856
0.013051939829913815
0.017700135856118925
0.030077434902560755
0.05081227127095305
0.09508098935876161
0.1576869840286564
0.19633841858456272
0.2002235820049014
0.16640249645425834
0.11676522766052984
0.09143109503404669
0.0993491084038411
0.13989735977980253
0.18580114779629722
0.2333993223840189
0.28109862383884027
0.2814281502882128
0.25517497019275504
0.19769898971654137
0.12157771321360077
0.146434366360096
0.268625959690973
0.5157106768079414
0.6612255689130642
0.7202800124098865
0.6746200409054124
0.5046882730956346
0.3442030055872847
0.1929640551677914
0.14945114413830593
0.1409370711538716
0.14999063560576084
0.17096484978418444
0.19967193690445373
0.22081844441423548
0.2243803237161573
0.21125437330363853
0.1797643387460092
0.143722126941994
0.11945080149742729
0.10715996609831649
0.10504869939672938