# vtk DataFile Version 3.0
vtk output
ASCII
DATASET POLYDATA
POINTS 5568 float
9.654226210441559 0.5208280659255183 -23.038837057119924
8.726172088762175 0.5459040634520755 -21.558970681391887
8.191865446188059 0.5572333478193008 -20.802768835558428
7.655687421256561 0.5624644030196226 -20.048010967341398
7.110341049607121 0.5638299727399384 -19.30070631994487
6.559424088977837 0.5660159585335648 -18.556514308287785
6.007141072948477 0.5684050439287838 -17.81178619322448
5.454650677029656 0.5696171180271562 -17.066300002017034
4.9032933806649766 0.5696979543887358 -16.320252845618057
4.3530538039852535 0.5706926142048938 -15.574990611292606
3.803570599734946 0.5738103455465557 -14.831072534088849
3.254650569052129 0.5800461855426606 -14.087032194535809
2.7066586120570117 0.592571703284705 -13.341647395335015
2.1605730459101835 0.6107164943205232 -12.593980022043022
1.617018804744296 0.6355233605198809 -11.843190026782326
1.0774086007965957 0.6693906406142055 -11.091485823154047
0.5435765748398126 0.7098635574009462 -10.339341140449676
0.01151831731923103 0.7536425969765607 -9.587191201682481
-0.5280510247004214 0.8029671080716593 -8.83851927779828
-1.0823808285086978 0.855319053798161 -8.0960940728059
-1.653843090667401 0.8959555458317991 -7.36582779412084
-2.213430074974951 0.893766803192372 -6.658224056060423
-2.7224281932837076 0.8388490578212805 -5.942174599119679
-3.1160873276743244 0.7076543260707817 -5.201592822664753
-3.3499452630031747 0.4974472871463843 -4.441590263697189
-3.4429676801914595 0.24233618790960865 -3.65708055145037
-3.441315326216029 -0.01978890234298658 -2.857939694302961
-3.384808743681521 -0.26392113458969985 -2.046817704026721
-3.2997380930484215 -0.46069324903358394 -1.2198420901716025
-3.212364302398687 -0.5883289138464101 -0.3938361475106049
-3.134431967451617 -0.6324363234808901 0.40729714837649655
-3.075785051128522 -0.5684004218512857 1.15598019755872
-3.0327522211482654 -0.389910801697927 1.824018151189212
-2.995880444213816 -0.11150255735761039 2.3937442349075004
-2.96728447075749 0.2624238991489148 2.8689612614103988
-2.9421707729563993 0.7268733592298897 3.277995948513031
-2.9097971990040854 1.2678333580305094 3.639012194385979
-2.8667631368402287 1.8690147833093333 3.990484954158488
-2.8317729543232963 2.491394297605457 4.367741902642745
-2.8728245668660755 2.992005358240368 4.778183559755049
-2.979305872101033 3.333962777916441 5.256293941187
-3.1372025157273553 3.410574315132041 5.6973330727056934
-3.281815238595001 3.2496742568916432 6.144012252220075
-3.429737162647973 2.816885786201804 6.4965617782762815
-3.5358384551681317 2.176725347796255 6.769338100241811
-3.5631703532291175 1.4115149660048967 6.970092614074607
-3.494776101614947 0.5730527724274758 7.109857645754306
-3.33500922430524 -0.26170534887227437 7.205910193501824
-3.087074377508191 -1.0385468501468236 7.297220357992399
-2.749648045969237 -1.721631127766854 7.406443975853132
-2.3268612116177794 -2.3050741228535023 7.536356103586237
-1.8239049571464712 -2.7906533201211214 7.702354712410279
-1.239709737020837 -3.161196301718307 7.929251647765356
-0.5885236704924459 -3.405684019086446 8.23066092951995
0.1057541666285794 -3.5408662641170787 8.596930691538027
0.8436331293862742 -3.583512352024884 9.011643361149385
1.6159174959391633 -3.5457466292859308 9.453695040145785
2.422306719478671 -3.4369203833550515 9.893412509104664
3.2475798445191373 -3.259466754741271 10.293927740723433
4.096000324477911 -3.0097970442294444 10.63886419998246
4.976511574661649 -2.675779244863805 10.918655424389245
5.9343840503166785 -2.2227932224224394 11.130655241574337
6.945617294569525 -1.633812779235058 11.24500034204557
7.888328231581655 -0.9668435914210474 11.258604078082701
10.588001691964244 1.2368731060412594 -22.560798741989576
9.517164802281352 1.2753034468179125 -21.083315376789216
8.932877319022081 1.262387935730896 -20.349565845337775
8.342758547962113 1.2447168440804843 -19.619503039862522
7.74593918600433 1.2201357885196245 -18.89696418846046
7.142834436902855 1.195250962493835 -18.178355533308814
6.536600428337483 1.1721984348238927 -17.46003367390513
5.9299966269070925 1.1493162368729513 -16.74063287144328
5.323342586105309 1.1267598940727683 -16.020802932908232
4.716126549590537 1.1054694112502663 -15.302041808282095
4.10844155902299 1.0888149253373338 -14.585520606969162
3.4996129555888946 1.0787670889951955 -13.870131474321175
2.8894499118724273 1.0766940120432242 -13.154472508938168
2.27813662803115 1.0800374892007814 -12.437173182261354
1.6683550734687245 1.0900459048470608 -11.716408369674602
1.0616403671918084 1.1101306291249189 -10.994633465588986
0.45870302451969125 1.1382591137264695 -10.272577770237
-0.13867928589435874 1.1708568195343427 -9.549299790831622
-0.73682173685396 1.205093277907466 -8.828057671165073
-1.3404151679279637 1.235520458454567 -8.1087612163261
-1.9575979733924358 1.2478493932338022 -7.397567570068413
-2.572625486810031 1.2174546251396778 -6.704098208167445
-3.1461539171830886 1.1306987245223263 -6.01011498535479
-3.610847020876605 0.965493696525062 -5.297566471579272
-3.9267039634510246 0.7283374133026446 -4.549679383394967
-4.089395544875621 0.45720908209958955 -3.755341086743126
-4.13179976493629 0.1876668193896206 -2.925060003016095
-4.093704834649169 -0.05540541781075692 -2.073767890905868
-4.000430420087696 -0.24916746020327657 -1.2080026031898308
-3.898881994164268 -0.3720328825653787 -0.3462790968189573
-3.8021950163844576 -0.41970712064583515 0.4604865805017848
-3.7185081414211014 -0.3933003034009699 1.1917477338370717
-3.649511214929922 -0.26968051036987006 1.8343622547092937
-3.5850393558936724 -0.06013790074910927 2.4037641540916765
-3.530739810129251 0.2510828895425362 2.9352456271794907
-3.4875567161172647 0.6602638209041316 3.390388664940851
-3.4381381030811333 1.1358110715079286 3.789110819467406
-3.380447312397469 1.6473157570865031 4.175432154765585
-3.3244577958814574 2.1708742817145272 4.581159988229791
-3.3337013001528693 2.597217522651587 5.019944876666407
-3.4012344856561647 2.950045411550449 5.607238836988925
-3.564436947180872 2.978099331430051 6.1414460576026135
-3.719835401858314 2.657435881373897 6.685084638740403
-3.898268877756568 2.1077263180388712 7.0689273909542045
-4.029593971185861 1.403513881925713 7.322591248270313
-4.070612330851328 0.6215429018720583 7.484264485754942
-4.003006834252327 -0.20744425297975289 7.583251568956205
-3.839265822392326 -1.002511691633679 7.6429578691021725
-3.590847895126104 -1.7045476456565936 7.711830900157196
-3.2568810621000073 -2.2781212651064404 7.808324975173544
-2.8344862673713385 -2.741729810758198 7.924613328654361
-2.3324172018722535 -3.111258996608746 8.079323712423832
-1.7317451480895851 -3.3762799020949483 8.305893044092777
-1.0438185561540805 -3.516818771381926 8.625012025518965
-0.30941995243360587 -3.5543153808565338 9.018643337504024
0.4633418835299168 -3.5189828893658315 9.457099817832649
1.2657586406517598 -3.4251093633705674 9.916266852016257
2.1041974181145457 -3.2815114135704575 10.369703757441327
2.9594177671367836 -3.083910601227341 10.77782909487609
3.850372612212914 -2.8176500536046865 11.133200482808174
4.785597852613782 -2.4586965443924917 11.43045116902364
5.832835914763967 -1.9516546264452022 11.670963704045795
6.965363576979625 -1.2653552811338342 11.817823577263015
8.017627422389026 -0.47762867864115377 11.871229170332766
10.483908770373192 1.1570517553083328 -22.614088216642774
9.429483669566974 1.1939578201802188 -21.136590259576487
8.850910626204339 1.1837625411822124 -20.400464235949727
8.266967818454187 1.1686636568423263 -19.667788632547666
7.676044785720706 1.146996649616539 -18.942625474124466
7.078923789598764 1.1251524611478294 -18.221306264485005
6.478877092594666 1.104958286737188 -17.500185398852764
5.878476854570787 1.0847836124986443 -16.77801782260056
5.278162268419335 1.0647720334664559 -16.05540737076451
4.677482159364861 1.0459876842770428 -15.333838952554935
4.0764741485841425 1.0315563459447425 -14.61441323302753
3.474519433313372 1.0233386157593702 -13.89598454087225
2.8714947621402658 1.0229048789912436 -13.17717537268613
2.2676796414306124 1.0279098600114633 -12.456666959376578
1.6655121162612525 1.0395779173292392 -11.73273457323267
1.0665127967870651 1.0612053683446352 -11.00780610983846
0.4715251642057672 1.090712790678832 -10.282587224259103
-0.11835644677114499 1.124557385653198 -9.556264864433114
-0.7097882204224417 1.1604781722492419 -8.83211568912968
-1.3077502097535767 1.1933567602290063 -8.11035928150631
-1.9197006337654017 1.2088590747582209 -7.397145510600536
-2.5283608305486975 1.1816523370062906 -6.702207574523151
-3.0944418169855585 1.0985131316601915 -6.005939648886761
-3.5509447438487083 0.9372045273464882 -5.29054904622633
-3.85740035182802 0.7032017099839576 -4.541652369959873
-4.012177724916296 0.43396194130077004 -3.748658473731096
-4.0495829862786765 0.16528446290188165 -2.9219814735715754
-4.009395850579362 -0.07791028522260621 -2.0752461019847432
-3.9170503111152786 -0.2720214491889055 -1.213857321932369
-3.817108682408324 -0.39543231770260034 -0.35616450893177076
-3.72252352652578 -0.44270615284110343 0.44995214314844667
-3.6416133735552934 -0.4121526732567267 1.1830098857219615
-3.5754637686792914 -0.2825911575798787 1.828213401523805
-3.51405056080453 -0.06563658617381915 2.3973129671662488
-3.462693993610576 0.2523264600770637 2.9219456137991715
-3.4215461202560338 0.6673460895633083 3.371649052111881
-3.374018207679783 1.149754594373232 3.7660170594756748
-3.3179363153317905 1.6705990175222645 4.148367665240414
-3.2642222204870373 2.2044512521891657 4.550836899719145
-3.2769119872391013 2.6385663019935977 4.986247472528176
-3.3490609482390004 2.990068317178204 5.560523417295315
-3.511624594156404 3.023941818672668 6.083554213745584
-3.665703599790568 2.7232693625743685 6.615139080249746
-3.8405530338083604 2.187374175819543 6.995426173799049
-3.968965168473297 1.4905702943131822 7.25128623190021
[...]
CELL_DATA 87
SCALARS quad_param_group int 1
LOOKUP_TABLE default
3
1
1
1
2
2
1
3
3
3
3
0
0
2
2
2
0
1
0
3
1
3
1
0
3
0
3
1
1
0
3
1
2
3
1
2
2
0
0
0
0
0
1
1
1
2
2
1
3
3
2
2
1
1
3
3
3
0
3
1
3
2
2
2
3
3
3
1
0
2
3
3
0
0
1
3
3
2
2
2
2
2
0
0
0
1
3
SCALARS single_component_feature float 1
LOOKUP_TABLE default
0.04666686259615646
0.1295504053640876
0.12031093582429836
0.02553824745433679
-0.11551677086613019
-0.11434080113590724
0.13050550593105814
-0.026740698594139016
-0.12654663007181233
-0.015504486934901064
0.025874667657656704
-0.03046313738537451
-0.12560638780499936
0.0341058452665812
0.07252514350166124
-0.1698539536767885
-0.11823309594379858
0.021475930032708968
-0.04056169751445657
0.03504375773344583
0.12035543833322587
0.03309112930998374
0.029114731751206668
0.013778787174020337
0.089850089492502
-0.05066926222711711
-0.168911720071863
-0.1902526754591789
0.07051357176764497
0.08443715273433058
0.025044314342107674
0.05363036506922768
-0.07458832518603914
0.03419905937070615
0.02605307145976688
-0.0311691683275214
-0.03213862983696155
0.015283538528924428
0.07470808217666751
0.03178684441653218
-0.06056119647721259
-0.08066639935891283
-0.01310638129173194
0.0621122953154755
0.10544912082821226
-0.11430965581419214
-0.08267299537191915
-0.05716701251692666
-0.053434590001012465
0.06541478086214406
0.031868623840721935
-0.057350829385962185
-0.01863054500936464
-0.0005287513916262167
-0.0033204894620422407
0.46159376422563614
0.11968877783846707
0.09357042975270724
0.07025360491645419
0.08468356524793724
-0.16037651424621768
-0.23641161544931139
0.011221627639647007
-0.01669015279573855
-0.011110523317845705
-0.018194341207413058
0.06679526007750676
0.06527797940855778
0.061374471031391355
-0.06672266201971208
-0.013532093997910794
0.047155623162292534
-0.22351294644164843
-0.04040511718546965
-0.062409116698930886
0.010586359866699223
0.10456284897107032
0.01955152684270515
0.03543952652107936
0.04517738601007845
-0.06930964252750468
-0.0069982875437224375
-0.195224356557204
0.02177519168066802
0.009684067447824171
0.060003946030928554
0.09705940229947829
POINT_DATA 5568
SCALARS single_curvature float 1
LOOKUP_TABLE default
0.033538097265024346
0.03539687004584101
0.007628385589612419
0.006073192067667178
0.002935043984298207
0.0013690123674398949
0.0017599357790868912
0.0023331379631682764
0.003733688314608535
0.005276362016448544
0.006886209112161295
0.008832499866630818
0.009396704223636717
0.008632172663722258
0.00926259026439149
0.010982000973435324
0.015506758368557392
0.02768209834996951
0.04770873943424452
0.09110925419665439
0.14947081778044963
0.18885778209276521
0.19899932587451075
0.1719174564761311
0.12629763789790294
0.09702841888578835
0.09524675704200994
0.12460383854488165
0.17270529710388435
0.2285797543976368
0.2842068428883915
0.30387534645294667
0.2855641972016638
0.22750840945297757
0.14616380278765717
0.15223239371588326
0.22865759282977416
0.46821701366061697
0.6224461430551549
0.6840804742506491
0.6603504708644601
0.5007344797371357
0.3469578919283567
0.20804143817113996
0.16266298716441482
0.16293589106454384
0.1832371859287871
0.2112803803607103
0.24315949785820845
0.256930151173516
0.24620374620010374
0.2181430280418486
0.17341333406715945
0.12776823054316153
0.10183357337691878
0.09339990550526664
0.09556683576085813
0.10020898795183857
0.10275061243951604
0.1042374867695833
0.07744848955426634
0.05065949233894937
0.0238704951236324
-0.002918502091684566
0.03542422642435138
0.0375066758878621
0.008803056459623624
0.006569231256006913
0.0032311612087651312
0.0016205747552435611
0.0021213234504341475
0.003917755064642053
0.0060691992451484345
0.007117980356402644
0.007810766451225069
0.008846350076909648
0.009026704732165772
0.009435647480989556
0.00805836758733827
0.006985569946607809
0.011275772056985644
0.0222338639685033
0.041945690261963806
0.08398898590825395
0.1356696300402157
0.17704753945165366
0.19598621790798965
0.17977670643234558
0.1451717351301515
0.11328842760051855
0.10047891741509901
0.10852843999907456
0.14924663985976658
0.1960408570548924
0.2372252088774608
0.28124181591438135
0.27252775110764693
0.2240301009248766
0.16106344141800102
0.15456825154551504
0.17648872633118293
0.4061911054292723
0.5396645928450348
0.5809275268345361
0.5826164104481598
0.4214276559106002
0.3062837875846034
0.21749495984745135
0.18815538581965688
0.21176685927233668
0.2517862244752513
0.2859155004298748
0.3089277957738509
0.2943256648037498
0.2521902293381556
0.20065076536946677
0.14303133591696218
0.09354522122122969
0.0716219891763318
0.07068340754084176
0.07872089249619822
0.08693724879558774
0.08962178129292787
0.09038991622361893
0.06661984126325114
0.042849766302883355
0.019079691342515567
-0.00469038361785222
0.034618023402118996
0.03667481949605587
0.008627462092439458
0.006458389928922907
0.0031096473814081044
0.0014872156702791426
0.0019754733465033227
0.0036721847472159673
0.005779052619962952
0.006883952565999137
0.007679378105211063
0.008821732808818272
0.009046285544313906
0.009335749292519034
0.00817402941178931
0.007285408008537688
0.011571248312328345
0.02267528333992791
0.042401184959620045
0.084768099280064
0.13727226270005222
0.17841083898463528
0.19640475210602582
0.178986069743978
0.14306165086246309
0.11146608823863953
0.09985934118110473
0.11036357872330896
0.15213062780376396
0.20013586409068979
0.24287907285612964
0.2841161677355139
0.2742577010707058
0.2246493893611337
0.1597293941722168
0.154741592639639
0.1818876776712028
0.4132823583439541
0.5497624396394325
0.5928317564334019
0.5916755258692736
0.42986984702391656
0.3096260913056103
0.21627689050572388
0.18499626120137058
0.2055375522150047
0.2432177902244792
0.27686565597557405
0.30135930671896416
0.29055412282888016
0.2521595696719658
0.20310940487472348
0.14656914515933528
0.09718594099833451
0.07474524183553492
0.073019146467545
0.08043580112044686
0.08829201681009928
0.09096249492704109
0.091773172640622
0.06768805331901488
0.043602933997407764
0.019517814675800646
-0.004567304645806472
0.03505259010719118
0.03685898262666443
0.007559376419054697
0.006089550513452927
0.0029937345255567323
0.001530053539890643
0.0018626206542219949
0.0021409082743108227
0.0033523743060517902
0.004970627083468629
0.0067919012158761
0.008907868931245762
0.00955541991671109
0.008507114816581255
0.009666570743594755
0.01227184700249996
0.016951523156003852
0.029363450756765993
0.049529619256724215
0.09292307231148207
0.15268642948308242
0.1916438815879119
0.19948395372723166
0.16964492839508907
0.12168042401669606
0.0930682948244183
0.0941264671977087
0.12861767135166347
0.17778153320489726
0.23525728771770674
0.2944730190404228
0.3082932118470864
0.2878222296284001
0.22759884800183447
0.14147493872493827
0.1503273331144006
0.243322242670957
0.4829065161677997
0.6389100071002398
0.707511896141965
0.6775668296607049
0.5208055469838834
0.36205086590802793
0.20618419222695786
0.15716503338694685
0.1528628760836857
0.1687595085986538
0.1948234509480954
0.2274425099154715
0.24638780502372576
0.24272936722073357
0.22087203842047923
0.18045989260133172
0.13688601928743374
0.11024587636092201
0.09979166723667791
0.10036595469320228
0.10401193550660084
0.106536490658522
0.10835875401211466
0.08072696232633605
0.05309517064055745
0.025463378954778848
-0.0021684127309997553
0.05672842761027899
0.05829281183677667
0.010582576781730524
0.008528818400150621
0.005382433636060255
0.004860747866379763
0.0048303934494491755
0.00543564996851545
0.005962480720347976
0.007928212365273114
0.009216608355326419
0.010151764120569142
0.011002518842737605
0.009685248820738965
0.014379360348471013
0.023096457791298017
0.02951005970424184
0.04165293217856445
0.06288463765523433
0.10348699622276823
0.1686750878576496
0.20596632696237643
0.20044814112150597
0.1528991200409424
0.09897956432089856
0.07424437260686027
0.09213982772716837
0.1572916078492891
0.20252901953008884
0.2627126638046254
0.33820321364580225
0.31920273721717746
0.2879090347322836
0.2181361900798427
0.10670889010674746
0.12869134738069918
0.3522181852817274
0.5565786512285728
0.6638914986679973
0.8223482778870878
0.7567056407060377
0.6406361196219755
0.5449891777079916
0.20001461836200363
0.13018196094511683
0.1058715101185695
0.09990857770570671
0.11241705175958099
0.13876388723812294
0.17308367593246332
0.20433173740082444
0.22227151619398594
0.2168766150082696
0.1974290393934044
0.1716407249638137
0.14813474149438982
0.13753640597095884
0.134404632317668
0.13790919263491186
0.1445900447781233
0.11047109198812355
0.07635213919812381
0.04223318640812407
0.008114233618124328
0.05651068208835972
0.05807610555907224
0.010549593571173438
0.008505268624726474
0.0053610971143187155
0.004831996032047455
0.004799967568536539
0.005395347946397152
0.005924034689892584
0.007886962916797427
0.00918567535672855
0.010137634686777097
0.010989160807716997
0.00966760122091005
0.014333016302555162
0.022999812963727627
0.02939556003980321
0.04154711386559725
0.06277161702899442
0.10341676206163447
0.16858958537678065
0.20588560724888244
0.20044556621930518
0.1530337180047514
0.09908049038896576
0.07431735630401963
0.09210519695587177
0.1570315542258619
0.20238334175554118
0.2625986956516524
0.33803162536324616
0.3192547696242942
0.2880251579832714
0.21829273473147298
0.106998007836223
0.12891115588945326
0.3512732133925792
0.5561679083237238
0.6642616374856782
0.8214983359542971
0.7560527526161466
0.639443331874301
0.5427110125230178
0.20001942454863664
0.13034114699819252
0.10613779739014112
0.10030813367791384
0.1129209749979092
0.13937336088188143
0.17368043779297995
0.20472975917604033
0.22236240954504796
0.21665306019879396
0.1969453344424015
0.17110249308248124
0.1476931720886433
0.1371889648926011
0.1341112519140119
0.1375941089854733
0.14420985357628696
0.11015156727028907
0.07609328096429119
0.0420349946582933
0.007976708352295414
0.03551472812348317
0.03759983107839618
0.008821660224648545
0.006581584768454812
0.0032459288386955483
0.0016366465989208925
0.002138685365803067
0.003944689009543497
0.006099299924748188
0.0071424498071561435
0.007824651980460829
0.008849195301636486
0.009024992628232241
0.009446019221948244
0.008046666086237593
0.006958548666499359
0.01124963048092293
0.022192567035417977
0.0419031994207868
0.0839088116982197
0.13550341227262794
0.17690621922197433
0.1959418750511077
0.17985721980513328
0.14538939999088102
0.11347648571300561
0.10054321948144544
0.1083380939396609
0.14894493450814192
0.1956114912353663
0.2366363382033884
0.2809405178103921
0.27234559999825875
0.2239628751030282
0.1611963037522309
0.15454410847406783
0.17593653435669643
0.40545771997843716
0.5386147836460844
0.5796972863262839
0.5816792933511977
0.42056527622166096
0.3059524921921973
0.2176231275132388
0.18848659271190465
0.21242263757262062
0.2526848628314161
0.28686022542428957
0.3097123228667355
0.29470878839172465
0.2521840345655173
0.20038993427818022
0.14266439310812856
0.0931720360449436
0.07130297070461335
0.07044495494263384
0.07854609326492953
0.08679893135656816
0.08948479956459601
0.09024896737857888
0.06651116628947948
0.04277336520038008
0.019035564111280684
-0.004702236977818713
0.041435808106608116
0.04312747051142427
0.0083413727647463
0.006841061635853786
0.0037869761794217193
0.002664481708378033
0.0025863945818408378
0.0025939604936399993
0.0034310832549934163
0.005183656797713849
0.007164385838236984
0.00923329774518665
0.010032571800514523
0.008574036227699528
0.011053249741513886
0.015916512613033465
0.021118604649773994
0.033763358472044584
0.054331271705386645
0.09724530504049078
0.15984772647252252
0.19793063491310622
0.20020234733836492
0.163625744756858
0.11123059984638449
0.08417505073724077
0.09209763260039511
0.13870463945806302
0.18875539960861
0.2488365974276857
0.31599734748599223
0.31629636253703175
0.29107091009510827
0.22623346928261956
0.1289363778169099
0.1437922481997999
0.2818623473500091
0.5157555720083545
0.6664003345487579
0.7573185502043681
0.712707358302492
0.5665037292263473
0.41087624063329975
0.20260887101151856
0.14523923772619654
0.13160282166980736
0.13790494122559901
0.15883454837192945
0.19105486649884756
0.21934616417151034
0.23120091557614092
0.22460855255414636
0.19621363486211676
0.15964813214723478
0.13207768923396307
0.11658730893331865
0.11309656877485372
0.11421459549722568
0.11681583312498182
0.1198365720398714
0.08998066970077205
0.0601247673616727
0.030268865022573352
0.00041296268347400245
0.05877753559899246
0.06033304916305417
0.010894276200895954
0.008750617585650941
0.005582497088737694
0.005129367968454891
0.0051150006382144585
0.005813450682671824
0.006325147539530876
0.00831700008878817
0.009508377005890113
0.01028569989632995
0.011127774746535693
0.00985176602807968
0.014813807376611969
0.024001055146931034
0.030583797907627316
0.042645419101624164
0.06394135158850724
0.10412699480956751
0.16943351415403676
0.20668683770993118
0.20048035848457485
0.1516939427918152
0.09815925575364849
0.07368303793487198
0.09254439905240415
0.15974591641139102
0.20385091483111006
0.2636973896226057
0.33965479118371006
0.31859907487252614
0.28672484095044704
0.21660495048830736
0.10401381741650156
0.12661480640200085
0.3610657990374141
0.560278126596337
0.6601595112288563
0.8304883572222511
0.7632062861774453
0.6524285631730934
0.5670241588844519
0.20000902970400242
0.12873869832449986
0.10346173049738494
0.09628231101151127
0.10782362546845073
0.13315714591254138
0.16752327529883498
0.20056072527151414
0.22135285124493123
0.21891077611950882
0.20193660292874555
0.1767013017721917
0.15230610420786636
0.14082678215736208
0.1371928476771319
0.14091757191399196
0.14823398340486046
0.11354041023521176
0.07884683706556306
0.044153263895914355
0.009459690726265652
0.03981353227818338
0.04152775656787801
0.008115104432553963
0.0066471956520342485
0.003591240517143896
0.0023908209892341916
0.0023539808120271303
0.0023505355060343524
0.0032557720714834868
0.00498154054993963
0.006998639907085262
0.009147272139100125
0.00992149515468923
0.008506111433330413
0.010701249082746772
0.015074943219132666
0.02014985387869622
0.03279480385702884
0.05327235962982271
0.09634455668890907
0.1584158797207903
0.19666235445788618
0.2001011303020652
0.16496011144905462
0.11332488619460694
0.08594508012424353
0.09242503649745594
0.13650021444739754
0.1865844562810312
0.24626967512638992
0.3118699091516131
0.3149501168856749
0.2906734082117117
0.2267283593803161
0.131712072168938
0.14538836395091734
0.2733293956814562
0.5091822021338122
0.6622772427850526
0.7476269400661664
0.7060854990530099
0.5572256262359189
0.3988133240531062
0.20325246178365458
0.1476043000614387
0.13575486884429588
0.14396179818012295
0.16600443875112145
0.19855055676179606
0.22523357576420072
0.23400187713775977
0.2241567015693493
0.19304391661439582
0.15475445495457252
0.12727433369076713
0.11286218057896563
0.11025756505099785
0.11192302188860752
0.11448873647574677
0.1172020168739698
0.08784132115300197
0.05848062543203414
0.029119929711066306
-0.0002407660099015274
0.035022829662011146
0.036830033177592585
0.007558590234206755
0.006087870888785704
0.0029915002798000957
0.0015259346081597628
0.0018604273951686359
0.0021428931144363535
0.0033572180884263916
0.004974435670681983
0.006792604246570824
0.00890641082670964
0.009552718456999579
0.008508588553719056
0.00965959014210188
0.012250584022676503
0.016927517666483205
0.02933615878040385
0.04949996813591571
0.0928943871733223
0.1526365219694315
0.1916004958662434
0.19947715510204803
0.16968190860771745
0.12175260298000797
0.09313010962852514
0.09414320447058447
0.12855370676001676
0.17770362663208977
0.23515632975447281
0.29431616040371655
0.3082278976840968
0.28779026672252567
0.22760016771347588
0.1415517144860566
0.15036132852140635
0.24308442848026285
0.482678098377053
0.6386691788680318
0.7071526953793758
0.6773052695759504
0.5204916214091664
0.36179193132002285
0.2062119351063424
0.15724947264509312
0.15301628883503068
0.1689807144427355
0.19507686846443065
0.22768854789364348
0.24655791360509224
0.24279038418601398
0.22083419079275493
0.18035054660414487
0.13674017786721115
0.11010993744803499
0.09968807348563996
0.10028797685368589
0.10394997978605226
0.10647464807138463
0.10829096856763308
0.0806728425922235
0.05305471661681392
0.02543659064140434
-0.0021815353340052385
0.04199659892446192
0.04368107118656102
0.008420335083056285
0.006906678996163534
0.0038524239300420336
0.0027559098421294304
0.0026700976608648327
0.0026878396103787285
0.0035039347446581934
0.0052653566679956194
0.007227651503152576
0.009263618163016884
0.010070218934176586
0.008602446827777417
0.011175728226942681
0.01620140355019152
0.021447222151012257
0.0340864394104226
0.05468445567440091
0.09753942018315243
0.16030794081838545
0.19833974914064043
0.20023025278675102
0.16317979771228475
0.11055881608504443
0.08360927751229108
0.09200415520943178
0.13944110483142544
0.1894524197257953
0.24964511927703506
0.3173016439400648
0.3166952770606111
0.29116448758510216
0.22604415420314428
0.12801042777126412
0.1432433895655497
0.2847159136706469
0.5178682015909686
0.6675365775224853
0.7604141428045176
0.714796049174587
0.5695185337033517
0.4150842178555091
0.20241095970157394
0.14447922962188056
0.13027523146707312
0.1359649726408444
0.15652641744609783
0.1886130625092225
0.21739094383275068
0.23023743776754738
0.2247175689184247
0.19723658190829724
0.16126712347666025
0.13368114596565123
0.1178350637850058
0.11404955753393332
0.11498610360795014
0.11760197559594225
0.12073123614801014
0.09070914916034017
0.06068706217267021
0.03066497518500025
0.0006428881973302852
0.05860245746278444
0.06015866549438065
0.010867553142176814
0.008731650431525729
0.005565449275943226
0.005106547450122564
0.0050907995603967655
0.0057812721762495614
0.006294104485992562
0.008283743917830412
0.009483406037800261
0.010274192142405457
0.011117104892836464
0.009837514044951317
0.014776804924399258
0.023924094870237195
0.030492306035979737
0.042560828697552094
0.06385152960162067
0.10407377516785747
0.16937194206488504
0.20662801500454153
0.20047697069588308
0.1517905920938699
0.09821824121178417
0.07372015201915444
0.09250233026552367
0.15953566692408844
0.2037413327772041
0.2636193192508653
0.33954212104161846
0.3186586347773836
0.2868324440121178
0.21673988749773285
0.10424232109678158
0.1267927912778167
0.3603129689616924
0.5599732652752363
0.660494016406348
0.8297813607201789
0.7626232386190506
0.6513782401705288
0.5650993417657713
0.20000671640568457
0.1288582455938494
0.1036610383653347
0.09658299741209893
0.10820591985203096
0.13362737003791383
0.16799456292459786
0.20088471581459255
0.22143572506883175
0.218741753655586
0.2015544677964705
0.17626909570404628
0.1519484320296704
0.1405440614101253
0.13695257152154036
0.140657322630176
0.14791777657739613
0.11327358263478093
0.07862938869216574
0.04398519474955054
0.00934100080693534
0.03434975166319333
0.03617704007073759
0.007563395829569167
0.006066109248626208
0.002954968423300473
0.0014455852324562833
0.0018126377630880756
0.0022033675571713923
0.0034892327561848353
0.005079646502817255
0.006818645390829165
0.008873335078327781
0.009488332483250561
0.008550340861749469
0.00949477354964792
0.011737924551666924
0.016350489604501375
0.02867341615515586
0.048780812887415835
0.09219032559987114
0.15140200882022883
0.1905288206744316
0.19930160426839436
0.1705788060367537
0.1235331086131615
0.09465596880996571
0.0945644142441397
0.12698976191669112
0.17576808316708525
0.2326320148946933
0.29041046898437933
0.30657833539903373
0.28696729214297806
0.22760430731530115
0.14340981694912872
0.15115695239870877
0.23730908935977138
0.47703192509492753
0.6325541956051618
0.698219858226225
0.6707748259547973
0.5127481048207374
0.35564937271942176
0.20690923679805442
0.1593466153753532
0.15683942917354196
0.17448634005828312
0.20136430157409738
0.23375177679382134
0.2506984886401888
0.2442266226746931
0.21985179020068876
0.17764580149985784
0.13317785244987201
0.10680370112124685
0.09717171989343747
0.0983958424953318
0.10244835330176413