# vtk DataFile Version 3.0
vtk output
ASCII
DATASET POLYDATA
POINTS 5568 float
8.96235852228547 1.1767213876932536 -22.849362142447287
8.252931740814853 1.0608067934139176 -21.483015244501306
7.723819534373286 1.0036370740619174 -20.708542177592207
7.19416078397445 0.9364773349650022 -19.93403412085967
6.659735094205046 0.8669531606661578 -19.163860553966366
6.12308028187756 0.7995599140961581 -18.393519062812324
5.586723429668492 0.7312651389165277 -17.620715141098927
5.050301403351693 0.6606997517651909 -16.84777132359562
4.5173169930863635 0.5881886772136831 -16.074372713919683
3.989203540084481 0.5167297614060807 -15.30082517891855
3.4641635773971533 0.4469287960552842 -14.526851359453143
2.9405296721158485 0.3799864300026943 -13.750417896070733
2.4182105251055614 0.31961293350512543 -12.969929364073714
1.8984146307972276 0.266291849614107 -12.185503438073548
1.3811005751337693 0.22380173563235517 -11.39783278316039
0.8651629244536924 0.19263165428107593 -10.60944075198897
0.35581946223114824 0.17068393646826385 -9.818796771405049
-0.14995862268362847 0.15481658602613257 -9.026023943766099
-0.6702044800955766 0.15045969133433543 -8.238256166396182
-1.2125573583275024 0.15649857700030123 -7.46080067666076
-1.770252318330674 0.15427721354644114 -6.700191639038651
-2.286533382133116 0.09939072420073793 -5.975265419766368
-2.738057888262317 -0.007406684404152958 -5.235954749328885
-3.0617258477864957 -0.20278339474914717 -4.466168724774646
-3.20612155986165 -0.5032500875824473 -3.692961748440046
-3.2073056378155815 -0.8574158512623726 -2.920150176918642
-3.1391510183491373 -1.2105158565460465 -2.1529433307384593
-3.0556106472449667 -1.548238043285664 -1.3623340809091047
-2.989150741465853 -1.8157249937571402 -0.5073543839910423
-2.9427585678165795 -1.9588261731586456 0.36673279914286905
-2.929074285974206 -1.964197216025215 1.2258894031034324
-2.953786845767181 -1.7932299158241787 1.9836841565780603
-2.993665608153441 -1.4916374749905092 2.6167585810862155
-3.022354144107606 -1.0886679799676018 3.113619902047974
-3.0435964461233866 -0.5598193403088718 3.49560875070069
-3.0573896539713292 0.11387843928872843 3.8198236482486867
-3.0525228369365456 0.9285440127657141 4.098569896777985
-3.0151809545284713 1.8520250429844096 4.372775338642322
-2.9742719930941393 2.787745787198813 4.693744092426394
-2.984229099886927 3.552183902186201 5.057747359210767
-3.0502227530769743 4.128178974648265 5.527211350439569
-3.166000584501578 4.369272302607153 5.97122572384868
-3.2913032816866212 4.343459449123952 6.463909036213685
-3.3957367833177186 3.961367830364974 6.854261320497081
-3.4688166527560793 3.280340273482326 7.161867597850443
-3.4736382066966676 2.4340726502189707 7.372714838241935
-3.3992025407623467 1.5255566953109043 7.497300167232366
-3.2411550043107265 0.6221304067949096 7.559866202204903
-2.993806771899822 -0.24362158066815398 7.58818784211664
-2.66305609548253 -1.0623731907872997 7.603109791996074
-2.2362057553470622 -1.8301160515534334 7.622110868196391
-1.6980223517284627 -2.5000998265681904 7.673508394118224
-1.0547808995362702 -3.0217849810501827 7.792012575808555
-0.35174436412215704 -3.357801658031272 7.9976364952444685
0.36869548488304404 -3.54137630440697 8.279614167064597
1.1151149623160732 -3.595771504089155 8.625853968324233
1.8728868774177503 -3.5443586900639374 9.01162910075292
2.6294110438611247 -3.4045676943893906 9.39648514475243
3.384670713959986 -3.1922500921559065 9.755494146022707
4.1479242209804355 -2.9101336764547114 10.071151137792537
4.921932643432283 -2.5505907187483285 10.329037479573504
5.727850781109913 -2.0866770381872812 10.52340243184394
6.577486056588334 -1.4846445190119701 10.633884525676875
7.352356276849488 -0.8238988647407006 10.629722342271897
9.211557246446068 -0.41204486259368356 -23.53738626183827
8.281798325356588 -0.32177873588140093 -21.988631016414896
7.783738239062793 -0.25621983824643574 -21.218474314029883
7.28613358196497 -0.19603142933979456 -20.44822809835371
6.7751533166661355 -0.13791136656750055 -19.68703983897702
6.2574845057676445 -0.07869425860646093 -18.929894214670792
5.739028829080661 -0.020123122245493202 -18.172418085967884
5.220441933028538 0.03667879409923401 -17.414181883393184
4.702805149789607 0.09155045840932406 -16.655201520230296
4.185749021615998 0.14700394031034258 -15.897164933937763
3.6693190070267065 0.20272387920792856 -15.140596315375838
3.1544673831148042 0.25875590710174 -14.384018300890316
2.6421698536058473 0.31951749047469374 -13.626448154634554
2.133883134828502 0.3853559088511286 -12.866736289108887
1.629090302974362 0.45582554830496325 -12.104405266007921
1.130299732382454 0.5334180120919868 -11.341219041364507
0.6385502053763329 0.615129425747081 -10.57836748312652
0.1449217072773305 0.6978049599406384 -9.817984137474635
-0.3579490856453202 0.7863304577545649 -9.062073984639724
-0.8792503451200404 0.8799449559209095 -8.314674237941148
-1.4215402401582766 0.9654532332016258 -7.5807442237364615
-1.959538246223195 1.0130748986235472 -6.866655408126157
-2.447140494364896 1.0102426892211156 -6.139073124469971
-2.8202221284827957 0.9380331393610998 -5.382169093555777
-3.0332207198455063 0.7918124609766308 -4.608487856270486
-3.114795963023437 0.5956622534693674 -3.8173975169359213
-3.109802816523696 0.38264718949094756 -3.022509930511055
-3.0512967458062135 0.18229537675220342 -2.230919069230625
-2.9639780199437578 0.016544444553287185 -1.4481402006696649
-2.8686886064659385 -0.10752813451696475 -0.6740415920685279
-2.775494175250221 -0.16722544497657982 0.09653806662104547
-2.6963774995949397 -0.12332549405590125 0.8630501666889443
-2.633411841154906 0.043682860929907266 1.5814460387158
-2.5866013597902655 0.3249394914855867 2.2006152551386307
-2.5546193394448973 0.6877884102506435 2.687934215290571
-2.5265759966579666 1.1156637833571652 3.1061186831237713
-2.4963921554640875 1.6040944855768107 3.4757019929795874
-2.4631497143058607 2.1537829106318025 3.8322686488110964
-2.4485439988257798 2.7338060396487487 4.210663141047741
-2.530725411229904 3.192835615926606 4.62368223427162
-2.6839412156645173 3.4372525954144493 5.03548872069006
-2.861729732905413 3.477399407083605 5.419734592086852
-3.0099915347331065 3.3607485082704818 5.787226962646383
-3.1560141420500707 2.9899343923968114 6.097676895908251
-3.2577382775196435 2.418755747373677 6.368998388646498
-3.2843409731537947 1.704129588444147 6.597250336388776
-3.2180488617551144 0.8896894227531851 6.778923437025882
-3.060647476061556 0.05233237188957951 6.92300291790397
-2.8126412840223214 -0.7493835793980129 7.065237055666957
-2.467946254460851 -1.4709757015572191 7.2319592065868585
-2.042446010245166 -2.08524538437962 7.42785880778353
-1.546920411339324 -2.5985897941643827 7.660388895693364
-0.9922425688382497 -2.9980383324884867 7.94345462482645
-0.3833757969234557 -3.2901812688197385 8.282706906117124
0.27491196245107696 -3.4834804572380063 8.673794160435193
0.9854006848892302 -3.584465539038703 9.106665996264132
1.7430002270749956 -3.599787612799942 9.564883654023117
2.5498955375421524 -3.535750950307852 10.022382247301788
3.3873835022396723 -3.3932609549762307 10.438549332417065
4.245342760075004 -3.17420402178679 10.790237044585346
5.136800813149161 -2.8740354245322037 11.067184814441655
6.102318179030544 -2.470708464918438 11.265420896002865
7.101604392278764 -1.9649055058927314 11.356366339822188
8.046118911445227 -1.388824006833655 11.3483893903903
9.536356557840627 -2.4828025913834715 -24.434139489423107
8.254788119649074 -2.06552580899078 -22.591927697610295
7.783592650696368 -1.8378336582147679 -21.806223535755464
7.313162143594463 -1.6094823360663864 -21.018782800770943
6.81798831119774 -1.3829247494242667 -20.24725274023007
6.310443856004969 -1.1569023300564503 -19.485908077808947
5.800645198277897 -0.9314555172173331 -18.726980821418117
5.29054558405381 -0.7070794245248254 -17.966339713216545
4.7782260354876795 -0.4843953710708596 -17.204603518294313
4.261006084932576 -0.2614363446059182 -16.44541179830545
3.741483399435581 -0.040147531046805185 -15.690573792629422
3.2243192543295267 0.1775357109192981 -14.939648565596361
2.71172928305129 0.39704312049744345 -14.192153798319936
2.2055530548617712 0.6187321188457977 -13.445316865244523
1.7054976261730537 0.8365766276239289 -12.698438777246437
1.2182326998598583 1.0557175592332002 -11.951562037476751
0.7395061113782486 1.2718244157636331 -11.209552236199178
0.25270628353718716 1.4818883899358055 -10.477162663525593
-0.23586220943570207 1.6900166232400644 -9.750057352180406
-0.7375645164052085 1.8961976274038181 -9.030596423881885
-1.2676331790234099 2.0950806157844735 -8.320662294856565
-1.8456621990419848 2.2806645035687185 -7.606443310624092
-2.3930932719954554 2.4170215268605704 -6.877403947603457
-2.8456165599776817 2.506199490256796 -6.109991863833809
-3.1632972177935654 2.5568068755547824 -5.287981388280235
-3.357624328099576 2.558175748841441 -4.419019200224007
-3.4361368675775914 2.5198761568285475 -3.546127702158443
-3.4072838451129397 2.4868099769356706 -2.7233069284399587
-3.294882484761221 2.4379588172230675 -2.017377511135433
-3.1437851471733262 2.3358318909241866 -1.3587681532495528
-2.9539294102974756 2.210171926217927 -0.6777757724386505
-2.726455984044744 2.081816330549843 0.15143689071237665
-2.503501569975404 2.0606209568397396 1.059081236919802
-2.3361374459212336 2.18174292836506 1.9256552841482801
-2.2253200935097013 2.369717054309192 2.63407055914347
-2.141338385900166 2.5775805333279576 3.243028200874323
-2.0791472613575532 2.79946441791434 3.770901834288209
-2.0461569317639956 3.0469519641149114 4.247805385946754
-2.055804507988704 3.3251153629431838 4.7071626856020465
-2.229591571749798 3.5228618284899493 5.238196883691451
-2.527558339327632 3.4665576878761755 5.709169970790881
-2.84287154126902 3.244474125071214 6.126227853556679
-3.034837907673779 3.0090505018959224 6.390893420917177
-3.235063687694961 2.6413075824522494 6.613949104356974
[...]
CELL_DATA 87
SCALARS quad_param_group int 1
LOOKUP_TABLE default
3
1
1
1
2
2
1
3
3
3
3
0
0
2
2
2
0
1
0
3
1
3
1
0
3
0
3
1
1
0
3
1
2
3
1
2
2
0
0
0
0
0
1
1
1
2
2
1
3
3
2
2
1
1
3
3
3
0
3
1
3
2
2
2
3
3
3
1
0
2
3
3
0
0
1
3
3
2
2
2
2
2
0
0
0
1
3
SCALARS single_component_feature float 1
LOOKUP_TABLE default
-0.09478459720026275
0.04740857029153871
0.23273954677191797
0.13425714904628605
0.009737087987532242
0.002209170670785965
-0.010243353549548497
-0.03348963412157462
-0.00608947503163129
0.033892111464054
0.007144146431993771
0.041034892844770604
0.12108949332299795
-0.04717928411116702
-0.013783490286911275
0.04887763051560352
0.059403840828072846
0.060983935223959354
0.045728385993796694
-0.08772989962018873
0.10884658445687966
-0.02821958343081981
-0.012580318730605227
-0.0986136624106079
-0.20083785999050396
-0.009868702182310042
0.058534620039570204
0.2871476909254901
0.035972655213992025
0.2113895600207409
-0.06375884382609566
-0.0235072495513245
-0.09309740415311796
-0.02364015645724864
0.013841955883377199
0.01922977111806575
0.002287725688231594
-0.004347418920645822
0.11218998963024461
-0.18690089200618126
-0.1502771647552188
-0.05543284222644111
0.07987028376389682
0.06820525855988804
-0.07064779779132378
-0.06990417256760446
-0.17665443484035043
0.05521063166477061
-0.03067143694294069
-0.05565991753336055
-0.0280081308096125
0.08429369102002673
0.09431780174221127
0.07406154100329651
-0.025080743534907628
0.15055385078226835
-0.09561614605994329
-0.10979827515277127
-0.08999059019582759
-0.18206944111331047
0.0004924354319978952
0.043771172036247745
-0.03717499793154412
-0.00406083559826852
0.03691062790743109
-0.07927228767111874
-0.04445494889654086
0.1348199799789096
0.02701020376331864
-0.05183503136406216
0.014302548000471996
-0.038156412684922945
0.04604576788511744
-0.07019548111940609
0.05493071005355195
-0.02874487797493892
-0.09988610698035993
-0.06354301250082504
-0.011007024009664093
-0.06376191974840227
-0.13969400169449342
0.028951718905886988
-0.013398591135684555
0.09169278824125374
-0.15175856073140054
0.205542135588809
0.09049734844673352
POINT_DATA 5568
SCALARS single_curvature float 1
LOOKUP_TABLE default
0.057448570686255085
0.0582420801498636
0.006050469317689863
0.003872318749547797
0.0029857489040836065
0.003377757119516001
0.003772469494805505
0.0042418973258011245
0.005316377191979975
0.00647250858715276
0.00881002498272544
0.010918455843693362
0.01201880916015401
0.011754529152127765
0.013780056178631341
0.017849594832888015
0.021320544605010223
0.03725438972446655
0.059134215127312206
0.10540313518652568
0.1706200610141013
0.2037551979417004
0.20090315309827078
0.15756238936986358
0.1126356810193001
0.10089349547206498
0.12424452136146918
0.195387370144793
0.2523667137384644
0.3076209975330555
0.3522924656774446
0.3252068314376426
0.2733900231133639
0.18992344876262252
0.10414422744297673
0.09597885794270694
0.1589311435226299
0.39983379435106053
0.5836310015758025
0.7123176864054739
0.7107066429608334
0.5801828108213205
0.41649178433282685
0.20412518648041142
0.14614602957173495
0.127728172139182
0.12749276365635923
0.14744563056933338
0.18417058360574873
0.23341869200993592
0.2638582238695652
0.264330858281291
0.23439935738803774
0.18403665983587608
0.14325014361514973
0.11874438418448525
0.11121098903042481
0.11164391000174242
0.11534736458994271
0.12414280673190893
0.09486359848014256
0.06558439022837619
0.03630518197660981
0.00702597372484344
0.027590738631452404
0.029919545028629403
0.008988607969483631
0.007942735913440151
0.003790387824288626
0.0016518565810295961
0.0015476235667826648
0.0014098748879447765
0.0023623453908076333
0.004198692182076908
0.0059408967371799674
0.008267559244899008
0.008832532845678932
0.0077407111344887265
0.009358444735939634
0.01274324769292859
0.018352383020387178
0.02920504593872253
0.048691747077091896
0.08971502470476156
0.14747299249586301
0.1869937409489363
0.1960633489262871
0.17015068448046103
0.12184213321522591
0.08619270743131335
0.08016908195060937
0.10334895041021377
0.14569151418284904
0.20570630789174013
0.27292621141642737
0.2934149131878104
0.2842646260120811
0.23517688452823962
0.15095031996105374
0.1802554142148811
0.32736220976711544
0.5350770083223445
0.6753434214750615
0.7316268334343115
0.6695004780015004
0.5214137485923945
0.3659185122634895
0.20481069358229295
0.1546972332149628
0.15029613893725574
0.16687994443402276
0.19069111874144037
0.21893928689324707
0.22826949069649602
0.2187501105402646
0.19858283993540907
0.1643750528559238
0.1314823497158254
0.1114977806308059
0.10392994953072818
0.10492842039051578
0.10772234020925389
0.10914959841788766
0.1083462171299861
0.07997791907017529
0.05160962101036448
0.023241322950553672
-0.005126975109257137
0.06557060376119837
0.0700368399965115
0.014106382597330144
0.014106323949383243
0.006540323508696541
0.0035876733755795427
0.003939371442959198
0.0041949150292223975
0.004522901198289208
0.004679135698905726
0.005136691341285805
0.007727696441960785
0.00810284955737622
0.010408012373933826
0.010087828035010522
0.011507688526721542
0.01916516610617421
0.026485791481117422
0.042194693240595715
0.07199011965665511
0.11088897775436012
0.1430592275898929
0.16514980950186317
0.1705598944251684
0.17257307304742847
0.16917117551125688
0.1473879562000839
0.11444734413795207
0.09611596572659854
0.10438483400143696
0.1370085655091398
0.1613743634424628
0.16454603213001995
0.1619580344552131
0.15947066599395404
0.24964379751751212
0.4202053736859769
0.4889998712068117
0.5917146956590542
0.5884757124695025
0.4861649356752313
0.4307485397836791
0.3041461998479984
0.22338333479406502
0.17930550772058207
0.18135660526142824
0.20707499992095402
0.22166090545042838
0.22321961223897727
0.1766250074300578
0.12778789821841655
0.1016664511208567
0.08504092743646295
0.08936506812711013
0.09225336465863328
0.09796431675453345
0.10218956516043469
0.10313282994306722
0.09929474496277392
0.08834036951399271
0.061619444227775995
0.03489851894155928
0.008177593655342569
-0.018543331630874155
0.03042639869516884
0.033815772817809
0.011294402446435807
0.010967107652564161
0.005002254191441134
0.0023721924299721494
0.0024842492526633876
0.002341140422544169
0.003087026148489846
0.004178072920689169
0.004960049771242458
0.007453429140100552
0.00780047203159137
0.008221675368884001
0.009190371050004658
0.011755854295691643
0.018507728042789984
0.026718648067674232
0.044510911845909065
0.0806020499088849
0.13008737534250478
0.16817592652814745
0.18406547358639444
0.17279251162753823
0.1421025545613536
0.10626818166982534
0.08244156874130301
0.07568883931015058
0.09317277206044199
0.1424997482409932
0.20579584542987145
0.23713192233275737
0.2435847619582378
0.22021609011172713
0.1693075948056695
0.23462918054046358
0.421115290502189
0.5540798622668394
0.6713367172921212
0.6947940396923913
0.5897429272631711
0.47662388616974005
0.33359312630051746
0.20846787892666876
0.16401797776394325
0.1661948107595624
0.19061456449802466
0.21183430196826378
0.22835747521370847
0.2097651239564781
0.17708170523033945
0.15049754400189894
0.12224785870702487
0.10622593731506433
0.09886724192608114
0.09944909853872132
0.10323341769805267
0.10571378424566313
0.10470260382369645
0.09863867989284633
0.07096125807756701
0.043283836262287684
0.01560641444700836
-0.012071007368270964
0.035581365321706006
0.03744642221935741
0.008059622223522345
0.006695719925257289
0.003404883221722747
0.0019094139042672726
0.001942479222654411
0.0019439503151871716
0.002944671851119907
0.004683412674180697
0.006650150505397571
0.008870356787570968
0.009566937340312881
0.008226116508615062
0.009997134046835497
0.013641021887292241
0.018698759572166133
0.0309663678394887
0.051147867444497154
0.09396725362567811
0.15458745125326148
0.19339297578371684
0.19929996429447686
0.1675650751682346
0.11719644195703992
0.08770203847561431
0.09003721460875529
0.12701247713089373
0.17570290777795924
0.2349484631365555
0.2993953523971732
0.3095231426072429
0.2895983940529059
0.22963931499623785
0.13869438299750805
0.15386209300178613
0.27488630435439476
0.507955169295354
0.6601591501281743
0.7338200231433435
0.691800146639098
0.5394996976731868
0.3800524804804751
0.2043239523034747
0.15172068350355877
0.14353399234985167
0.15569154927173262
0.1794113648479909
0.21140307065400268
0.23255896058090195
0.23400757751126883
0.2183401383069558
0.1835325564198851
0.14448798804167604
0.11872170297807252
0.10693920013752396
0.10608194029497305
0.10861124061166165
0.11094007548272143
0.11262077879788733
0.08399199079489991
0.055363202791912494
0.026734414788925076
-0.001894373214062342
0.03727751129329913
0.03905144750265793
0.007887880277860457
0.006461350643031509
0.003345267983358224
0.0019965552320965734
0.002066430016047653
0.0020992618064868385
0.0031076846190117085
0.004807420657513084
0.006800570602080003
0.009003088667778965
0.009727447819342672
0.00840406905303602
0.01020019504223257
0.013888505108605826
0.018833746463776457
0.0313593050006493
0.05167549541985044
0.09482237329501501
0.15594565103283303
0.1945152165447516
0.19978435329393598
0.1669530003218947
0.11654212216206301
0.08832805382913435
0.0923038345656596
0.13201911621658907
0.18167536514973193
0.24072586987149833
0.30430294954054077
0.31205101147865083
0.2898295174856915
0.2278055769010191
0.1362100503436255
0.14887060726707452
0.264715120119087
0.5015766106427305
0.656154717108202
0.7334921022308774
0.695191202204089
0.5429384736126526
0.38283814508292774
0.2042679731439122
0.15119475170410734
0.14222991289704984
0.15347471139807634
0.17708771920610838
0.2097034353458014
0.23314803290925828
0.2367892053698253
0.2221240900115173
0.1873525461318205
0.14719463483943748
0.1202783533512495
0.10761993519699956
0.10635105621346647
0.10879617355435064
0.1112860055801779
0.11347295085034885
0.08479441371919565
0.05611587658804244
0.02743733945688924
-0.0012411976742639635
0.04008035716630043
0.041705550717670695
0.0076136314188126955
0.00608449144592644
0.0032584385712699153
0.0021540268160462357
0.002279536694347018
0.0023657680405022507
0.0033858106257590565
0.005017667319803159
0.007053332770002316
0.009229904895921752
0.01000099735911558
0.00874791044942783
0.010582411778813226
0.01433900707686803
0.019096946721449053
0.03203540114047737
0.05257088526066645
0.09623468461192461
0.1581355900367163
0.19625006136122858
0.2004626138605368
0.16587876478590188
0.11561085552098842
0.08952588882368848
0.09618270145699626
0.14038855572288406
0.1914695734757915
0.2501767739325764
0.31209352792698336
0.3157282904569836
0.2896495941234671
0.2243110088270927
0.13210134098228457
0.14088506959181957
0.24837341431163354
0.4904203055219377
0.6489004298405695
0.7324521141520652
0.7000299396596469
0.5484776091412173
0.38740590792986973
0.2041975693501697
0.15037206737207448
0.14011772698889818
0.14984513005044556
0.17321907497161815
0.20677158292403272
0.23393159773283145
0.24118288607082772
0.22824306623995325
0.1936445824835342
0.15173803581080994
0.12293153776903286
0.1088041461351993
0.10682697092006845
0.10910972303320018
0.11184905926205509
0.11487873811284098
0.08611935105009935
0.05735996398735772
0.028600576924616095
-0.00015881013812553413
0.04520903976633009
0.04656621558902878
0.007129542005767708
0.005412825954500473
0.003129004183892653
0.0024760238376953306
0.002689559665919871
0.0028789640619418847
0.003917578390375042
0.005418088306291142
0.0075339268008789255
0.00967351705912314
0.010533817618357248
0.009501184925048627
0.011398502741236468
0.015265980826819679
0.019671318695260714
0.03337468562558565
0.054306626854246115
0.09884859001910021
0.16201062791090715
0.199069126376344
0.20131120682501877
0.16369883566242663
0.11427201377701708
0.09216985437990287
0.10370114464715408
0.15606689480456165
0.20933920807719758
0.2673253547398061
0.3254472217188409
0.3209440873958093
0.2875793505886103
0.21643910808693842
0.1244105276799231
0.12690678575207376
0.21982834581868374
0.4677585933942085
0.6334503536733506
0.7289935716525292
0.7065898156864432
0.5582737484254593
0.39577192603286043
0.20412427663793345
0.1489859626427278
0.13634757708799694
0.14324563309133143
0.16597423825198254
0.2009512743135187
0.23477476985045007
0.24867247183913405
0.23915639141127001
0.20525245402343206
0.16040919705703793
0.12813401411426284
0.11120845534125487
0.10782402143619733
0.1097267210214078
0.1128684717531047
0.11748393721333816
0.08857773365668467
0.05967153010003118
0.030765326543377686
0.0018591229867241932
0.039147536045555105
0.040822031528669284
0.00770383430168519
0.006208775286931252
0.0032858786461324643
0.0020999427521767484
0.002207644659496495
0.0022758801279767742
0.0032921916880653207
0.0049470165737320925
0.006968544501743333
0.00915330152816594
0.009908706693547624
0.008627219929019415
0.010449329446084019
0.014183856345936297
0.019004426412831364
0.03180640475287942
0.05226924206860088
0.095764110093141
0.15741331618224863
0.1956884304271433
0.20025353273096114
0.16624525111084051
0.11590237355838275
0.08910618582203296
0.09487356151060837
0.13758848510900148
0.18821636444335105
0.2470410141384777
0.30954174495978354
0.3145711308536841
0.2897854417086301
0.22553776965927536
0.13347203649412917
0.1435105571676099
0.25375119456397965
0.4942228158002094
0.6514046622433936
0.7328657477047915
0.6985214896258157
0.5466512946054644
0.38588820167399457
0.20421823961486724
0.1506400636210978
0.1408157040867564
0.15104986157985612
0.17451207316200837
0.20776543136107814
0.23369642169868565
0.23974637674999041
0.22622203867424823
0.1915501864676918
0.15021377417350698
0.12203583237626521
0.10840106572438948
0.10666386300386417
0.10900397987493124
0.11166252626650945
0.11441042769902379
0.08567782044425036
0.05694521318947693
0.028212605934703497
-0.0005200013200699349
0.03028439645080666
0.032445845524714086
0.008643253270642283
0.007482625689243504
0.003636211131603668
0.0016957677688025417
0.0016139112666997163
0.0015217018579355753
0.0024935831905124432
0.004328190897842116
0.00618495029117764
0.008470773164314258
0.009081313627583453
0.007840668432535851
0.009519419750957662
0.013004306867697622
0.018418177299341105
0.029795029616067132
0.049534673660071915
0.09123115710665089
0.15007888972640687
0.18943432544436564
0.19737688023377611
0.1693188032380221
0.1198796228336056
0.08636240115204753
0.08335707069571531
0.11148262791962579
0.15642480824706168
0.2162198178087367
0.2827512999409629
0.2998527253855476
0.2870095644143443
0.2339351958596552
0.14662979741209503
0.17059230825882274
0.30846417744626947
0.5263515086095477
0.6708846899376436
0.7331972517605572
0.6785157370517809
0.528055224337015
0.37101782443711445
0.20458992248130556
0.15356102976146346
0.1478326144077098
0.16286547038653107
0.18673001389703708
0.21643609190965046
0.23006876856964345
0.22447042276311444
0.20581309275489293
0.17124104522426725
0.13603616581702516
0.11397797958663694
0.10493365405510725
0.10530710593591526
0.1080358470968781
0.10980301475978788
0.10988018882690384
0.08141605766349802
0.0529519265000922
0.02448779533668638
-0.00397633582671944
0.036164946971460915
0.0379985310839867
0.007999929466258271
0.006614409365068407
0.003383701782001809
0.0019386157233501427
0.001984599042796394
0.0019967813800378154
0.003000217381912691
0.004725766615729391
0.006701727633538589
0.008915676599372048
0.009621780761295627
0.008284533261867158
0.010064373699890094
0.013723833575504198
0.018742892105061682
0.031100308338061617
0.05132837429356554
0.09426181180348081
0.1550580385126056
0.19378567585596668
0.19947307899073252
0.16735758129523945
0.11696252964206308
0.08790830024049183
0.09081011212340101
0.12873082519677956
0.17776358162486558
0.2369430158047382
0.30110190399471826
0.31041990527168395
0.2897077433340534
0.22903256742674818
0.1378386128548963
0.1521292807437585
0.2713609851819852
0.505790428364719
0.658813468729299
0.7337335794866735
0.6930081943471182
0.5406915271101702
0.3810138780773178
0.2043034189450116
0.1515370481841398
0.14308264952687144
0.1549263912103308
0.17861267274587594
0.21082416776226204
0.232771773054356
0.23497621358649162
0.21965042835657547
0.18484939863110575
0.14541667986783602
0.11925378888963312
0.10717068363685696
0.1061730924535228
0.10867458386152488
0.11105969347183588
0.11291446434391508
0.08426846226393417
0.055622460183953254
0.02697645810397234
-0.001669543976008575
0.02882199931442523
0.031071817744780537
0.008824423326424458
0.007724383728582597
0.003715761391552984
0.0016631436047718218
0.0015631702618476308
0.0014461011382416874
0.002408052072817324
0.0042510951849800156
0.006054186545036822
0.008361378509665118
0.008947574062345975
0.007778994693450904
0.009426450955626454
0.012859444230807825
0.01837691304674797
0.02947705433101824
0.04908349519049562
0.09042803461382545
0.14870815404236928
0.1881639165689858
0.19670342170940497
0.16977221442938553
0.12087201221777018
0.0862118026171935
0.08161262583703435
0.10712143993966164
0.1507380345876491
0.21066112366025888
0.277599303732988
0.2965410124947817
0.2856784002818824
0.2347012811806394
0.14893243715970542
0.17568627694070418
0.31847851391471743
0.5311164488026834
0.6733871242612196
0.7324836970157944
0.6738901954921995
0.5245644653917071
0.36832568056734694
0.2046991583863943
0.1541516592052131
0.14913041964799956
0.16498950684505234
0.18883795569506628
0.21778889785614267
0.22915453223154694
0.2214801569260363
0.20200956772871645
0.16760941948414462
0.13361271827531682
0.11265129693928794
0.10439268469262554
0.10510234028184814
0.1078696248121831
0.10945919425305768
0.10906937458313094
0.08065553613110418
0.05224169767907742
0.023827859227050663
-0.004585979224976097
0.027202698236338252
0.03043549171141682
0.010945291183843988
0.010515307980450417
0.00480355026975726
0.0022249112613195268
0.0023017591673560704
0.002121338818067601
0.002909234423270247
0.004131044775884991
0.005026007436583116
0.0075120120237094105
0.007880983030714475
0.0080507192542057
0.009153655152340841
0.011860440778997474
0.01845522438726358
0.026945246210365273
0.04500064302329117
0.08189383362962954
0.13274065580113698
0.17131521948783998
0.18623413133169262
0.172690052361719
0.1383926322789163
0.09997075298919898
0.07834847281356717
0.07581604050553203
0.09774048188655503
0.15111156439864246
0.21602495569636626
0.24697249279390843
0.25218495163073756
0.22510248087662038
0.16804820196356662
0.22822398410823147
0.4119658353627201
0.5559401182238309
0.6760050900930226
0.7037950679102878
0.6036051870413843
0.4834760338308788
0.33833181627984554
0.20755890016771927
0.16236626487229772
0.16385085019270168
0.18740667469425995
0.20925437110875134
0.22774860166283137
0.21331831303930437
0.18378209820392707
0.1577746999160411
0.12826694294498553
0.10952989318831137
0.10039090925754772
0.09991752572417244
0.10342417896635242
0.10602671279914593
0.10540083229301157
0.10008316032901135
0.07229200524308255
0.04450085015715374
0.01670969507122494
-0.011081460014703864
0.04812388690451804
0.04933198081350564
0.006859970252800371
0.00503565512010343
0.0030699304969860016
0.0026747902560843658
0.002933398590152332
0.0031848640496750322
0.004232877488219853
0.005655404511180836
0.00781971801576736
0.009944419090046983
0.010858049666981446
0.009984468882904395
0.011914403807434954
0.015837686930551684
0.020034299768184972
0.03420357452430284
0.055360270543078356
0.10036391948901377
0.16414760932083197
0.20046567958915903
0.20155314621171724
0.16233766368067776
0.1136779830673808
0.09391363150233246
0.10822370812433806
0.16519571837468264
0.21952975610334116
0.2770277458444559
0.332530255648141
0.32304499147454874
0.2854067787235373
0.21111612480272685
0.1198595879272075
0.11924446518122428
0.20436763018494214
0.4534360742522544
0.6233266041110618
0.7261283301194514
0.7090430213809749
0.5636819231193051
0.40058301488624126
0.2041070845359562
0.14825506774556757
0.13424656684820094
0.13949778004596514
0.1617326251322589
0.19734963510362366
0.23490721270850137
0.2526397744310578
0.2452484007651256
0.21197261054850727
0.16560991289070287
0.1313418662181368
0.11274186142013422