# vtk DataFile Version 3.0
vtk output
ASCII
DATASET POLYDATA
POINTS 5568 float
9.285344586529884 0.19797101708220605 -23.375770637357427
8.368246421370753 0.2078080639845291 -21.83335184626094
7.856284133184822 0.22139552997921977 -21.067523249343278
7.345363212011474 0.22762863405118733 -20.301501752835367
6.8242397438085565 0.2317336036416808 -19.54289757491184
6.2979429042368675 0.2374730069473498 -18.78685430203764
5.770868445551757 0.2426545119150387 -18.029835623383267
5.242960290298596 0.2460842122550722 -17.272664356856012
4.7157178746506565 0.24777181144181282 -16.515417853483243
4.189375630129814 0.25030587057340414 -15.75922977899674
3.663746239478832 0.2538446862541514 -15.004080110554677
3.1392265721867516 0.2592516969979698 -14.248022769635735
2.616826772941519 0.27045181350084985 -13.489785385880161
2.0980624598956568 0.2872791344042428 -12.728605680992924
1.582151099306849 0.3110018833634311 -11.964577759734683
1.070433679483616 0.3434750713110013 -11.20012639238132
0.5660502604479775 0.38139572963443563 -10.43520265485741
0.062227778200412476 0.4217996673062782 -9.670969228030817
-0.45368276638608496 0.4687627855183557 -8.911158090132453
-0.9916369319429057 0.5208186394491381 -8.161193512290662
-1.5508720185218199 0.5646498238209777 -7.42808809654769
-2.0913698788956987 0.5678758128342447 -6.7212962269507415
-2.576142016518915 0.5261614872573136 -6.00003516908071
-2.943215479580291 0.418292241081709 -5.250923263550263
-3.1456719845652357 0.23637250779730407 -4.486229409045434
-3.2131480595170547 0.009842278347411249 -3.699191471446104
-3.19256110722831 -0.22426955549116892 -2.903266783174442
-3.1241781024118525 -0.4404499487130957 -2.1002030897133066
-3.0353620596686066 -0.6079940226524347 -1.2864396494537966
-2.9440807571700223 -0.7093209228043889 -0.47830397979241734
-2.861062983636862 -0.7260939536783997 0.31067484592421657
-2.7965318127080954 -0.6262504719806972 1.049769152189259
-2.747395158152869 -0.4181118181503397 1.7129432539103275
-2.7077781868287243 -0.11569638452510644 2.2856256968279745
-2.6817594536411407 0.2720152542802848 2.756691331990952
-2.6646911348278763 0.7473884843027614 3.170777991701871
-2.6483209168143214 1.3107184161377279 3.541200967730093
-2.6263136888507246 1.957607580979797 3.8999656068286273
-2.6181834603543304 2.6405992467182324 4.281935303351864
-2.7041443564695027 3.1959765929688055 4.7036997247695504
-2.8451794466194262 3.533649693010441 5.129173084785556
-2.996200707906091 3.636063971874626 5.499000404543393
-3.130042008271416 3.5744232230423187 5.883485385482572
-3.2433820395772788 3.257534139226958 6.206348535586389
-3.311605447196733 2.7151007493233665 6.494096661531796
-3.3072047391294648 2.005719559489787 6.734340481365723
-3.2176218829034697 1.1902828739589428 6.916180437030895
-3.0452897070023193 0.3515073785933903 7.048020572231607
-2.7902335060921812 -0.4506449529004548 7.164328133124814
-2.451122702690685 -1.1816068505569768 7.289524117638402
-2.0343925653061508 -1.8246057099221835 7.431028040909055
-1.5403583646787986 -2.373431923499229 7.601695299080424
-0.9736471173848704 -2.8068622528639566 7.82189644120159
-0.3458259197419178 -3.1161353774778653 8.102262828571629
0.32972087998901045 -3.3132170437880886 8.437932908065717
1.0565630950728744 -3.4051860755501373 8.821540734091325
1.819544560171055 -3.4042836853592053 9.235336871265963
2.611873043348747 -3.3208519585281615 9.65053309857633
3.4214759105583044 -3.1623381253982097 10.035708943357665
4.244200512958342 -2.932341828247826 10.370190247452138
5.090922040233835 -2.626081009900753 10.642525297566529
5.995744532404646 -2.219926093480935 10.844884266896953
6.947515064763156 -1.6991540502607383 10.953341084183853
7.852261934009881 -1.1044713915789512 10.957343516181753
9.34828886753134 0.23019333558860322 -23.40296628925761
8.40431777230303 0.23670868405748346 -21.836546925046385
7.890468273015546 0.24576728573326684 -21.072367587580192
7.3779962804318515 0.2472757224827382 -20.30790086516827
6.855451615865835 0.24667135516301616 -19.55083988554238
6.327756923004084 0.24777598684902014 -18.796324761418948
5.7991439969350145 0.24838340718621457 -18.040858423925123
5.269403058414255 0.2473121593713687 -17.28539509217913
4.739883380672927 0.2445823494607439 -16.53008283473269
4.210823130873144 0.24275229169865228 -15.776019360413144
3.6821928732479563 0.24203767505179638 -15.023084098510031
3.15452644820963 0.24346608838121622 -14.269232221430848
2.6289856567535255 0.25085979211743226 -13.513147953249565
2.107142592279461 0.26383491294947997 -12.754054296981524
1.5880695082254275 0.283794335739593 -11.992157650718726
1.0731029932635225 0.31259880649592153 -11.230024050303696
0.565677590397986 0.3467016128210868 -10.467473687397558
0.059098232962082387 0.38321648283921605 -9.70554931037217
-0.46000393213854796 0.4258186594808962 -8.94799458598081
-1.0021141773412765 0.47281267204664956 -8.200606619714744
-1.5663941192802007 0.5115744898889718 -7.47097953458941
-2.1111867825587955 0.5107324059353243 -6.768041738381291
-2.6000245574273997 0.4673136083453878 -6.050308938792774
-2.971671676930137 0.36140487439232827 -5.305133314006671
-3.1793292365631878 0.18517103588834494 -4.542466757583627
-3.2518989890712384 -0.03320826434514648 -3.752899844385829
-3.2333872605938834 -0.2576438124219048 -2.9514370544937893
-3.164230344764908 -0.4624087083217505 -2.142471012502716
-3.0720635408451504 -0.6176394516851063 -1.3250724321374674
-2.9760717858003876 -0.7074276776329369 -0.5158848462718
-2.8868265963608137 -0.7141081437233079 0.26974199382623343
-2.814307135406632 -0.6086624093632154 1.000880996409656
-2.7567950268570707 -0.40166617330102555 1.6557896351074408
-2.7097248108503216 -0.10613641671419866 2.228672734475978
-2.679042211622655 0.2720398740564331 2.709449681454393
-2.6611089453563177 0.7384322372054234 3.1355192658658364
-2.647203012034055 1.294729534872802 3.518171919884387
-2.6301663433558917 1.9375131128788028 3.8878762631812025
-2.6277863409417597 2.6199266652177524 4.278253772997939
-2.7244001624393914 3.1787567093583857 4.710787820126718
-2.8713621477558138 3.5166856382649585 5.1369812400713535
-3.0205953291678513 3.6196478881204484 5.4968112886484874
-3.1519963535801296 3.568108645185801 5.873920181955775
-3.258207041546978 3.2725365252659304 6.191882355325145
-3.3171718696965447 2.754304278510477 6.481367411492709
-3.3034376720342524 2.0630337945213153 6.72841830146726
-3.2056770941167474 1.2588046319086583 6.917668380482607
-3.027412772334799 0.4275557187450443 7.055283616947194
-2.769256864058703 -0.3671784082398635 7.176181930766781
-2.4300050701884492 -1.0905929263859409 7.304650358527315
-2.015852473423861 -1.7272286747014458 7.447324656170926
-1.526347604982089 -2.271950534437302 7.616820910904403
-0.9645767131960306 -2.7044935907510577 7.833570650277859
-0.3402288046577523 -3.0154618533415842 8.108422424924791
0.33481124413059615 -3.2155814524497206 8.436913894150765
1.064004109929161 -3.310266623274194 8.812777086239564
1.8295929267859392 -3.311886220758867 9.218860952347152
2.6233390724209054 -3.231020147410179 9.627276728897078
3.4333261386645306 -3.0756465046933594 10.00803265040467
4.255182014900912 -2.849860146893077 10.34067218459297
5.100457637781946 -2.5492154352675223 10.613872940150275
6.00352628784514 -2.1501006741834954 10.818498531209936
6.957643434855876 -1.635970217245969 10.931396466696768
7.870752883101143 -1.0448627076056605 10.939709019597368
8.003626942990197 -0.45816347978256944 -22.821992814917618
7.553470873225453 -0.3938925194162381 -21.71588618428603
7.0769174005517455 -0.28696752970604045 -20.9109435381895
6.594490110493764 -0.1833226427718571 -20.107674570049817
6.09919567114831 -0.0821240076258337 -19.31222033286002
5.598317672163919 0.019157200757106557 -18.519824297923073
5.09953329410648 0.11855519850966297 -17.725976047687613
4.605837356133847 0.214649838582685 -16.928614061245227
4.12167128484617 0.3072381075383271 -16.126143418417282
3.6470967948372985 0.39954914244521306 -15.320319821599444
3.1788528984246405 0.49053927009305265 -14.513489807017724
2.7148263458482544 0.5776613698797893 -13.706243528295486
2.2530070589204234 0.6670468911869224 -12.898212290700615
1.7936325045454347 0.7630531282784608 -12.088656405408527
1.3388655977828172 0.8642099392876671 -11.275296947723945
0.8901658254405346 0.972390834304028 -10.457468023821088
0.4447610271361135 1.0893253742232367 -9.637908735873724
-0.005696044500990927 1.2102924338134475 -8.820637657731982
-0.4603272397067414 1.3475274850660064 -8.007719481964683
-0.9194088540869851 1.5045181939290049 -7.1952637322171435
-1.3833460624565865 1.65382877008551 -6.378505328142684
-1.8419870559999048 1.741489623190434 -5.582295923133332
-2.246959737615644 1.7346631827143586 -4.781652500280969
-2.521640121408679 1.5844154788931881 -3.941884176644912
-2.617254633321673 1.2783513522758938 -3.1201838154313832
-2.5807645171737232 0.8748798185121577 -2.360944318663331
-2.516887570476182 0.4335203377116471 -1.6473024874247595
-2.461041375040264 -0.02889437538113404 -0.9257603848179726
-2.43795839266225 -0.4647961631018095 -0.14437854981543974
-2.442523309923209 -0.8170494095143059 0.6814887117449393
-2.4934357385208683 -1.057532892556594 1.5792179837055063
-2.611232193128902 -1.083910675747062 2.5241196874725205
-2.757420161968566 -0.8456034070257994 3.391733922256038
-2.8812781397546963 -0.37736858917839133 3.9849580433953076
-2.9551195830126367 0.26652583632373605 4.297273688617708
-2.9553048306361767 0.9990597370438745 4.493564551661724
-2.88319525885336 1.770841641496665 4.630539438218098
-2.7547208165946357 2.5454187859347264 4.780724200942524
-2.6310754243436985 3.262237952118681 5.006616312711386
-2.5250728425880156 3.7816198594309443 5.2509594311561605
-2.550832645181224 4.121298266952751 5.671024961099837
-2.7406759354967556 4.20472309763653 6.2805423427464975
-2.9413861195148097 3.870532833038049 6.8669748311395775
-3.266372183607685 2.9177615143115396 7.301331566974021
[...]
CELL_DATA 87
SCALARS quad_param_group int 1
LOOKUP_TABLE default
3
1
1
1
2
2
1
3
3
3
3
0
0
2
2
2
0
1
0
3
1
3
1
0
3
0
3
1
1
0
3
1
2
3
1
2
2
0
0
0
0
0
1
1
1
2
2
1
3
3
2
2
1
1
3
3
3
0
3
1
3
2
2
2
3
3
3
1
0
2
3
3
0
0
1
3
3
2
2
2
2
2
0
0
0
1
3
SCALARS single_component_feature float 1
LOOKUP_TABLE default
0.021296566369195226
0.029841698667088835
-0.15270568861466768
-0.020225015033790098
-0.043872789141831264
-0.023279812750608322
0.02449235532774975
-0.03515448345734722
0.03183372087969714
-0.10579620209998546
-0.1365225991435463
-0.06143884955260711
-0.0448358821926161
-0.1135084565757117
-0.10982764568770159
-0.14758778529349278
-0.12341286936896527
-0.04329892385690182
0.03052517815549807
0.04225445652921077
0.018797470760324612
-0.13393298044341262
0.05544438054020163
0.02308833834549298
-0.050288864246068016
-0.05856827362306516
-0.0008929344004920958
0.020101431159411376
0.18480234538640883
0.12350232061631328
-0.0524119905211644
-0.048774123097473976
0.11513074850285004
0.06712584840917747
0.1221402724616824
-0.04274966235213759
0.04823050268349262
0.08820283966822141
0.006741987813908364
0.030247494425265323
0.02341785549148022
0.04109003570102024
0.08164461345076535
0.045623298828544566
-0.005389604687818295
-0.10457805040888538
-0.05619264918382127
0.12430669965258959
0.06837006255471204
-0.05226564889167007
-0.02450865057616157
-0.0685159974929178
-0.02636011701476777
0.09729983909282312
-0.007388684089868813
0.1271623197711146
0.0425395459697499
-0.000660551541486358
0.03167862546220967
0.10984460369767231
0.30510427646844446
0.1486809981880071
-0.0251350217318314
-0.0016496986104047196
0.0071941081678106936
0.06834650068688844
-0.025116736683240867
-0.03862789123548302
0.037894804067418734
-0.07807676282981854
0.005389380562141971
-0.05028683383367334
-0.017685252388474692
-0.012087763784273231
0.05676772598196284
-0.02708187146560291
-0.0908107303209105
-0.012776359389969273
-0.09403058536290348
-0.010900746009310684
0.04339493953611567
0.0023670530485102106
0.00957558473657339
0.10944522302835995
-0.07267438015114491
-0.11708629389077002
-0.1019653378173097
POINT_DATA 5568
SCALARS single_curvature float 1
LOOKUP_TABLE default
0.03429104524286905
0.036037864124322375
0.007877019171967845
0.006234212583431598
0.0030001106033664313
0.0015046459109178782
0.0016351505751574418
0.0017858031700665692
0.0031649816568300663
0.005061802855753175
0.007095164843786079
0.00922382631926169
0.009827730970574416
0.008428340716985928
0.010242752739177595
0.014479931464444573
0.020274035495933446
0.032304491754648626
0.05159072095528697
0.09259926955661003
0.15200723628808685
0.19065619531451464
0.19877602216400198
0.16987975626465368
0.12153889393044465
0.09349499742125178
0.09506161749371386
0.1311865707939789
0.17607272688859754
0.22452199680780366
0.275471904302117
0.28332616874934496
0.2661307436513918
0.21764467591625428
0.13838256901060422
0.15047927786426657
0.25284624585185905
0.5049367140693757
0.6580466027045704
0.7528424251688685
0.7283459428387266
0.5776030217291817
0.4287138618126943
0.22011462239618848
0.1548763445232029
0.1410901300896877
0.14943106087431643
0.17171954860192873
0.20406684051313656
0.22827457573472104
0.23353952223477006
0.22138773816254237
0.18873171845999778
0.14924448727355044
0.12131082407760255
0.1061285644909466
0.10266695135044512
0.10457334604726559
0.10723417391531745
0.11016332594835838
0.08296362854142911
0.05576393113449983
0.028564233727570554
0.001364536320641277
0.03294781598391597
0.03469473759737789
0.007912916424362086
0.0062145308783528586
0.002958504508576095
0.0014923946526330999
0.001674436742016428
0.001854083977333494
0.0033357190341138975
0.005210785554237675
0.007212638014935615
0.009298982648673784
0.00985276777143191
0.008433105244592681
0.010261947296739517
0.014726472381314163
0.020872810341084423
0.03265783390121809
0.05152860932309151
0.09163172340872748
0.15030051450629164
0.189041666481177
0.19835757286318031
0.17112595468108877
0.12366828821542786
0.09553472824804694
0.09596323757533591
0.13030757328977363
0.17292190846146427
0.21698110589368408
0.262862864598501
0.2711226510963532
0.25650095742645845
0.2139496301530829
0.14051134052806108
0.15248847692347267
0.24999844592570147
0.5075906968531181
0.6585371051600385
0.7603741872482189
0.740687310268659
0.5909506899895107
0.4477044474680116
0.2270020969275387
0.15654699985263867
0.14086536607834568
0.14807743824314076
0.16976390434371705
0.20192123814037993
0.22617906797824935
0.2318668400664064
0.22062283356685128
0.18882135208398815
0.14975134449165717
0.12155750446559346
0.1054748631520184
0.10118274985341687
0.10286075019747311
0.10555132048376796
0.10873085972391269
0.08214170912338876
0.05555255852286484
0.02896340792234091
0.0023742573218169805
0.05962477773095767
0.06140497970769955
0.008889439183090181
0.008941692545747972
0.007843603226149036
0.008878297065762923
0.009717361576775496
0.009272423301585864
0.007008341545843205
0.006235752833651588
0.00670245507109406
0.008050619980786785
0.009795395225578225
0.009663914233756362
0.01235727226994642
0.014958696370820848
0.014716461583451072
0.030308334964996908
0.058581839696701735
0.11386081531888262
0.1860130713201481
0.22598768986665513
0.21558508024802253
0.1619230910549039
0.10610921951206102
0.0775826521009255
0.09384695233115893
0.1491612866339884
0.2110347393099642
0.32140636087759306
0.4265935143559225
0.43081548223548133
0.3934999957296113
0.2807109091673814
0.16436499138063015
0.17189206143708072
0.3595581737315225
0.489935177432938
0.5962435765678072
0.6012288275811447
0.45744595887679523
0.32859344132176704
0.178101766410044
0.13203416286671285
0.13045770212220056
0.14682408597929925
0.17328202790559
0.20158175062012942
0.23671754332426434
0.26057241173653095
0.2601163909741811
0.23265835922061234
0.18478045088667852
0.13980783739624286
0.11832647840283012
0.12096734050778297
0.13370786275426302
0.1376141300724261
0.13800830528658345
0.138268999191699
0.10042392047313711
0.06257884175457523
0.02473376303601335
-0.01311131568254853
0.0411157745268512
0.042864661815304995
0.00785098942625298
0.006652434832273029
0.003816316383592868
0.0028066913037183487
0.002942100215753741
0.0028637779456219853
0.0034590266925473784
0.004833466118510918
0.00667916726065838
0.008879300548235412
0.009738619201050083
0.008541225953127386
0.010367569879441665
0.013613012368467238
0.01768833291115112
0.03078051401805281
0.05218281449216317
0.09748195497823783
0.16051084441020666
0.19896111317685625
0.20115155893505662
0.16387797880219074
0.11176128018679424
0.08407753618916249
0.09124775533057697
0.13580383693496184
0.1896645843595984
0.2580340380767134
0.3322180934605946
0.33870174769792394
0.31135761010463714
0.2365085919267864
0.13503096296798503
0.14629342802024187
0.2717319963788733
0.49578709090246453
0.6497928964235158
0.7143195728076818
0.6641434018119353
0.5119804895611771
0.3445575250845047
0.1908369721127449
0.14776367607555707
0.1427451359302496
0.15603184850569177
0.18059099082472205
0.2137671086659193
0.23781423626640466
0.24125675592521806
0.22486347817389465
0.18817369859689703
0.14683044160558698
0.12025997050178143
0.10950470785735567
0.11007051556033862
0.11290022536420986
0.11525935283781387
0.11708372882255429
0.08701440255297026
0.05694507628338623
0.0268757500138022
-0.00319357625578183
0.04491835825028571
0.04667026987735691
0.00791587903077312
0.007024824860033792
0.004485185677977918
0.003843432514243035
0.004090011818203023
0.003895279240471516
0.0039794126585361205
0.004965722160190898
0.00657580021155117
0.008699598433497907
0.009711867161449545
0.008680747824237684
0.01057597641915348
0.01337982764814839
0.01648996091911389
0.030110633690837715
0.05275752732468325
0.10034005307584185
0.16538837943506393
0.2039094577917296
0.2028372432012672
0.16071902095102492
0.10698284522169918
0.07939750015640479
0.08954637057253402
0.13856465241492227
0.19597884013863068
0.27440213159765886
0.3596354152286389
0.3656848035937774
0.3343472844639679
0.24723659972374423
0.13661146021408987
0.1465582064705605
0.28450090689598156
0.492101376680842
0.6417080119350329
0.6920003082930374
0.6258892033548754
0.47532744303428875
0.30389844133307375
0.17699811035741028
0.14425818010611346
0.14386091041919435
0.15967812507317317
0.18515689834308827
0.21874614638213735
0.24274471749280113
0.24530743525136386
0.2266451853523738
0.18775876507398995
0.14550112099148582
0.11976462617458343
0.11152695017533838
0.11436238691389775
0.11758257518598073
0.11967781629361939
0.12098207681616478
0.08936104584282602
0.05774001486948725
0.026118983896148487
-0.005502047077190278
0.041615283356055244
0.04336448801298237
0.007856387559328208
0.006697418451218565
0.003898399411746112
0.0029356680179304954
0.003083805774006822
0.0029884107538079886
0.003518591876350043
0.004843491466434647
0.006660634563624484
0.008855385061657941
0.009734192200424225
0.008556787264612264
0.010389511810902233
0.0135718485194346
0.017521385567935
0.030684459357766963
0.0522466481584382
0.09784922337650574
0.16114235675486938
0.19959450202638399
0.20135343652262605
0.16345323331880068
0.11110281938611648
0.08343720764024051
0.09100777585457404
0.1361582304456356
0.19054119097874936
0.2602669001580183
0.3359911706508428
0.34240803395489156
0.3144761782014367
0.23790771086018284
0.13511104625133372
0.14623025107978244
0.27331555779839733
0.495264920234931
0.648861807633455
0.7114290903364012
0.6592376454633588
0.50719014484489
0.3389955591787037
0.18894177687871208
0.14729296248452975
0.1428879002243742
0.15651054108375637
0.1812009781218965
0.21443261044344528
0.23847214305055967
0.2417949739562432
0.2251021538430838
0.18812422986815366
0.14665670748931095
0.1201919149342326
0.10976297480369905
0.11062336946911473
0.11350894090818874
0.11583719069825323
0.11758937468489317
0.08731600119958871
0.057042627714284255
0.0267692542289798
-0.003504119256324656
0.03378296834489005
0.035529804389469656
0.007888864309404813
0.0062236810498809934
0.002977065432373991
0.0014840673904117094
0.0016326244826848021
0.001795220838737454
0.003216994687155796
0.00511419016544166
0.007138133065930547
0.009251772821971493
0.009836827892559229
0.008428852992148395
0.010248011712894778
0.014569526537125123
0.020495530261167776
0.03243539310136812
0.05156519802212508
0.09223547961043477
0.15136634145985015
0.1900478007938081
0.19861711998322942
0.17034664601091717
0.12233307214137025
0.09425586850552178
0.09539456565550579
0.1308540826341174
0.1749070540569872
0.22172396229817956
0.2707806453892299
0.278781455157524
0.26253014878271824
0.21624918123667908
0.13911082959616622
0.15117497740788996
0.25172761051113723
0.5058923758319133
0.6582844437354165
0.7556833180218158
0.7330069903255483
0.5826120863803481
0.4357650575276598
0.22265495798013915
0.15549137124397905
0.14099973900907353
0.1489237139425355
0.17099316122812802
0.20327026220572456
0.22749591808301683
0.2329170241061935
0.2211035127622029
0.1887662097846345
0.14943373565586482
0.1214018153792915
0.10588207737734058
0.10210979735114101
0.10393231479233903
0.10660574267635929
0.10962782848611434
0.08265575703628217
0.055683685586449996
0.028711614136617825
0.0017395426867856528
0.04353521669434836
0.045285863113731326
0.007885766446244669
0.006881956530412721
0.004230902669219863
0.003452576800283503
0.003655483831928571
0.0034993148015257888
0.00377347561719743
0.0049037622986075665
0.006603760365234322
0.008764383660709862
0.00971972816359858
0.008624498478830912
0.01048915873400976
0.013442692125059302
0.016906030487650214
0.03033707429585456
0.052523629938160475
0.09928287935347196
0.1635946018916042
0.20207478715033628
0.2021814825022335
0.1618452988849056
0.10865451845942642
0.08104456850611146
0.09013141249926923
0.1375440186469527
0.19377793797163637
0.2686156337590172
0.3500190597089256
0.3562086452479088
0.3261964867582504
0.24331404839062606
0.13577080584321277
0.14625221907459712
0.27965279180924607
0.49336545158760636
0.6449089890004646
0.7002027156169026
0.6400501961624883
0.4887139660943867
0.31824873008296845
0.18188276602384656
0.14551564693150948
0.14344957119316665
0.15835125607188394
0.18351538460754263
0.21695663017173908
0.24097058654800535
0.2438454375477758
0.22600616399813747
0.18792038680254908
0.14598699735475848
0.11993890281293007
0.1107758152843821
0.11277760448940334
0.11586497017984293
0.11806387484871766
0.1195492810033292
0.08849276905073601
0.05743625709814282
0.026379745145549624
-0.00467676680704357
0.03264264262370503
0.034389614274333034
0.007923271676793589
0.006213818726671047
0.0029584122388544663
0.0015083809118698565
0.0017035462516394892
0.0018886183407482275
0.0033884502693065583
0.005249211418332087
0.007241144073974319
0.009316698922274843
0.009858931098235687
0.008435792501134794
0.01026878927263446
0.014787115287281266
0.021015339408149595
0.03274166837104744
0.051516935815792156
0.09140864916268594
0.1499060195914192
0.18867106734572558
0.198262916106348
0.17141522594706896
0.12416688950814515
0.09601223434611278
0.09617854706718136
0.13010747832137093
0.17217215886731957
0.2151968319005424
0.25989645865111655
0.2682569957186339
0.2542576234417561
0.2131063339971829
0.14108762065551944
0.15302199980982426
0.2493978178110927
0.5082515302715493
0.6585835008466128
0.7620985083869443
0.7435061487188155
0.5940385922861723
0.45218972876193747
0.2286513273642845
0.1569487915653398
0.14082108154777778
0.1477634270199464
0.16930191534784744
0.20141390543419366
0.22568444100969415
0.23147321068857551
0.22044229101757737
0.18884106390848618
0.14986986093725005
0.12161657363342537
0.10532502200058899
0.10083941810241333
0.1024622858318508
0.10515793663568958
0.10839666652811294
0.08195069957357047
0.055504732619028
0.029058765664485522
0.0026127987099430483
0.05390318298153562
0.055668672874437775
0.008343667632616472
0.00811049488798776
0.006389011313226213
0.006714187989965434
0.007296456081350799
0.006929856362142091
0.005659662195020124
0.005629446981520314
0.006580741495168004
0.00829203446295557
0.009720458028956701
0.009192588521313666
0.011461513070399644
0.013758098719813617
0.01457541746830777
0.029400461601711288
0.05530045132696488
0.10790033850485473
0.1776634151355148
0.2168733953794577
0.20899165314027357
0.15565405768964427
0.09978085750973407
0.0719231101782558
0.0874978637641007
0.1453831148793417
0.20728571474141455
0.30681818350460793
0.4096824935779792
0.41489940739259557
0.378321124830716
0.27169306596954773
0.15036018672901832
0.156699883153325
0.3243503823883048
0.48705819586931415
0.6151257236891168
0.6368426745494286
0.5267900086811936
0.38657119910918264
0.22170983280230644
0.14837884158537804
0.13611102469467135
0.14622624518272895
0.16820527757150894
0.19541112177762363
0.2299358596804864
0.25386242153408745
0.25454861817948987
0.2305349664254647
0.1862957783491861
0.14218857323434334
0.11878997224239259
0.11693458347402834
0.12554086531141206
0.1293547700423804
0.13055335681217153
0.13097374804484482
0.09561724575867504
0.06026074347250526
0.024904241186335482
-0.010452261099834298
0.05775809859997127
0.05953287487188488
0.008684233418917928
0.008656938737411008
0.007344612765984594
0.0081376119509595
0.00888869549331994
0.008468570748192015
0.006542124527474196
0.006022023011656987
0.006653236689557463
0.008126775144565132
0.009763506001358344
0.009495708947464813
0.012032451949248601
0.01446887990953526
0.014474915596459413
0.029815895984771024
0.05728336670432114
0.11174699402067882
0.18325030589323485
0.2229566136780094
0.2131488389894591
0.15887135149502804
0.10291904354623158
0.07465993250559692
0.09103988581050558
0.14805273075420725
0.21017845980890282
0.3172983889642354
0.4226419148006072
0.42726697596382895
0.3900167127466789
0.2788359110735787
0.15962615656877868
0.16608708568901426
0.3470269369116281
0.4881287700026905
0.6022244622235075
0.6127739335761937
0.48058744737250714
0.34761733657744676
0.19167840758871638
0.13726911684266563
0.13237810063438915
0.14675759253505719
0.1716820494924634
0.19960343624022872
0.23453558656095908
0.2584206567637189
0.2583403308842568
0.23201033452437483
0.18534580644081664
0.14062049565970508
0.11846259602716051
0.11959188979226872
0.13093341482534174
0.13483826150723963
0.13551859349214082
0.1357834905350995
0.09876262819015648
0.06174176584521346
0.02472090350027044
-0.012299958844672582
0.04762413290204953
0.04937910591205244
0.007998992336101102
0.007324535669722929
0.005013792828617379
0.004648012941777503
0.004987159082889618
0.004728744075043344
0.004427653622989195
0.005123342278951485
0.006547606003677777
0.008574436740217994
0.009703010303797624
0.008808173916557405
0.010782668525128988
0.013338308421941936
0.015751212611558797
0.02973759936777015
0.053313455839278726
0.10247704909541398
0.16896965749688936
0.20762149330337326
0.20429866463507515
0.15863976702025742
0.10399374910644166
0.0764122117495999
0.08852468030284154
0.14060618565668387
0.1999557586444688
0.28515452459007007
0.3771410366523359
0.3829511045994937
0.34943331452361404
0.25494947428689163
0.13923360017084097
0.14800893205237037
0.2948367899960069
0.48991146352889986
0.634654659102462
0.6756908951034135
0.5973423275150206
0.44892788028567715
0.27719577468170936
0.16786381135413667
0.1418257383934993
0.1446575814644469
0.16227216236469363
0.18831545157554586
0.2221891938787481
0.2461631227046191
0.24813686479408015
0.22786676230195924
0.1874012232980811
0.14453727677741543
0.11944221791650231
0.11305389902706085
0.11755552575582481
0.12100493106228682
0.12287171950910071
0.12385137402625745
0.09112088430431318
0.058390394582368915
0.025659904860424645
-0.007070584861519624
0.045069607533873866
0.04682166944997976
0.007919654054086261
0.007040897900597581
0.0045136744588604475
0.0038870387000262603
0.004138561437330687
0.003939875030501458
0.004002948320654885
0.004973327586487546
0.0065733443817775844
0.00869254884594841
0.009711140860388667
0.008687267820438297
0.010586236738643708
0.013374577467973181
0.016445938657413322
0.03008721422789386
0.052785018741126837
0.10045701349541997
0.16558600451007063
0.20411261497702254
0.20291236121270784
0.16059795969590437
0.10680533652673961
0.07922181409592366
0.08948483471090928
0.1386773115182599
0.19621276537796611
0.2750232202551051
0.3606607948206275
0.36669578855231
0.3352220541062282
0.24766679946779988
0.13672308500418404
0.1466081378975823
0.28504738146157355
0.49196866105010534
0.6413407498153252
0.6910976336820063
0.6243230999021805
0.47385930623846034
0.30235852246800615
0.1764733202320606
0.1441214834853044
0.1439059457889938
0.1598232337027006
0.18533522848836467
0.21894053684777956
0.2429375569067689
0.24546662915777254
0.22671446564488584
0.18774027697881193
0.14544775275054148
0.11974596139623402
0.111610248701527
0.11453752391495096
0.1177715996275588
0.11985497043761634
0.12114001508154153
0.08945717871425768
0.05777434234697383
0.026091505979689983
-0.005591330387593865
0.05490922366927356
0.05667690640619831
0.008422202872224054
0.008248090906839742
0.0066294728538569825
0.007073075026365814
0.007697856800185732
0.007316791508595488
0.005880303355836751
0.005725942469456017
0.006596059239343371
0.008248114924832205
0.009729003431616434
0.009266364265092277
0.011598318470369701
0.013906525053604207
0.014488087267045925
0.02944751128896834
0.05574503010891397
0.10885281778826389
0.17910451153200796
0.2184344745700747
0.20996821634574356
0.15591989521393756
0.09997470242032863
0.07203015374747003
0.08793710298982733
0.1461152493823569
0.20817380679259218
0.30978859593054714
0.4136431711821761
0.4187310639175523
0.38189911648688557
0.2739050997869509
0.15266524710253784
0.1588365561227712
0.3298963635534992
0.48705663289943124
0.6117526825864068
0.6305525472267274
0.5149398741370556
0.37645021395182304
0.21359757957960335
0.14543080620242269
0.1351610796495943
0.14640764793965663
0.1691303307794585
0.19651802209646727
0.2311478769718515
0.2550654881688625
0.2555514527979409
0.2309348671110926
0.18607210937697163
0.14179119713595242
0.11869879618248527
0.11760591928289976
0.12690790744274721