# vtk DataFile Version 3.0
vtk output
ASCII
DATASET POLYDATA
POINTS 5568 float
9.174828042840332 0.06452457587813476 -23.30055121058108
8.304522373238116 0.08804134815894982 -21.80319184437022
7.794867368177962 0.11579789361355922 -21.033181574971394
7.284151677556659 0.13660786637515912 -20.26401078197557
6.76179056098671 0.15554273743811636 -19.5031291881169
6.233712131718353 0.17617293622742614 -18.745280420248438
5.705036138252486 0.19621822960814483 -17.986590983978036
5.176198478142779 0.2145634862959575 -17.227435794330496
4.648923376954223 0.23122841359231264 -16.467748595132807
4.123313613926374 0.24886550873643937 -15.708773980713065
3.5988751522328446 0.26785357433554524 -14.950803673650128
3.075789251003838 0.2886115743775109 -14.192042518579516
2.5549111994967024 0.3151945881322338 -13.431288893051219
2.0376722402658345 0.3474987112594761 -12.667701280255935
1.5238664845971546 0.38652746541240546 -11.900862361080051
1.014981542407948 0.43422025590217267 -11.132849911249298
0.5133628786443599 0.48710080004599443 -10.363872835561212
0.011975250341566435 0.541952951036741 -9.595525606835661
-0.5002857864942385 0.6038854715933593 -8.83179240518586
-1.0321619452188506 0.6720821834953004 -8.077117358412226
-1.5824666217107122 0.731394806195701 -7.336695038887304
-2.114472036406659 0.7473247127893278 -6.619955767809024
-2.5895120994249607 0.7112825042151948 -5.887717169205493
-2.943625507903123 0.5984821183556652 -5.1250327142136
-3.1306005148017357 0.4026967904415224 -4.3503582395087825
-3.1827287308889947 0.15718978534028014 -3.5640153269935633
-3.1531970807973617 -0.10000794266793736 -2.7770972944957775
-3.0818076976104187 -0.3431423695852137 -1.9862883847959094
-2.9953039123878353 -0.5415887071033975 -1.1834417044433505
-2.9085652721976216 -0.6768575337976586 -0.3819349701259571
-2.8319336584929187 -0.7295653498002107 0.41103295288652153
-2.776048168873844 -0.6622520401619475 1.1714031786549608
-2.738333332002609 -0.47323946843976955 1.8685231877755286
-2.711874113108768 -0.17291630965980193 2.4574587533155348
-2.696518212664829 0.2218275697963577 2.9251444578480266
-2.686162208152516 0.7073671327195583 3.328987677744308
-2.672845742223507 1.2800502973758894 3.683141131859194
-2.6512664609105965 1.9299897504344647 4.019611355055605
-2.6395112251266784 2.6077600852310003 4.372293643050718
-2.699615453597801 3.1604322055708147 4.750191788733692
-2.818425822973592 3.516715844294976 5.156092872993475
-2.963238237282677 3.6382829533687966 5.5377555199531185
-3.088243467290623 3.5874969011627 5.9419440418970995
-3.2045619968872 3.245836620306184 6.278050025875284
-3.2864735247702965 2.660683706933994 6.568210090957268
-3.299260945841527 1.9139790915220178 6.7974637852463164
-3.2265997585768154 1.0707610746639131 6.962850409704912
-3.0692972348438228 0.2105025403208789 7.077500113083837
-2.8254513065539983 -0.6153979816611701 7.176386148332876
-2.492123485308024 -1.3734835264689413 7.284813384711953
-2.074767891954318 -2.043127167017534 7.4132377176212945
-1.5751356485994938 -2.6152017069895894 7.57526071226659
-1.0006766347026623 -3.066348705893769 7.79079128203203
-0.3666738524013633 -3.387465448682883 8.0714592541557
0.30928249484516057 -3.5922960433111597 8.413454123626286
1.0301265496554606 -3.6913417605758934 8.808084238172208
1.7870594470556003 -3.696113795225962 9.237057115132128
2.5759215269955895 -3.6163202488896684 9.669738124164384
3.3848225321966896 -3.457551490817777 10.070146613145322
4.210117553266839 -3.2227465873587926 10.41493682150364
5.062075638426441 -2.907026708621452 10.691162901806027
5.972121048633469 -2.4881400963415157 10.89283871480924
6.922238061252739 -1.9541996200043368 10.994959286692776
7.813210965969231 -1.3515894363731542 10.991398103010404
8.790659255931562 0.5049186238831553 -23.362218948770764
8.06814465345889 0.4834128179691818 -21.97515724328862
7.5775076914229675 0.4875057140573146 -21.20454268730178
7.096096665829795 0.4853203500772558 -20.427969702413474
6.612037919966946 0.4788532257469136 -19.652396350278643
6.1261421813388495 0.4720401078550616 -18.87607736218779
5.641002806277821 0.4635936169890818 -18.09720444582411
5.1561497266581195 0.4514941003123067 -17.317142350784305
4.674475512668884 0.43546392219954044 -16.535462232141374
4.197036513122409 0.41826352959157925 -15.753177276031096
3.722610086967238 0.3972551448266456 -14.970023074775765
3.25042366448969 0.37315278647785116 -14.185118136822203
2.7795840098041276 0.3510663028156408 -13.397662759081834
2.3111448511171813 0.33488920876283673 -12.60792540293137
1.8431543987550734 0.3250596955932206 -11.817489010125104
1.3759815127754216 0.32271295481213563 -11.028334518163936
0.9126273857810654 0.3308279466503231 -10.241479468269482
0.446591715533228 0.34662048242528115 -9.457434185243153
-0.03146651821941254 0.37487953247706146 -8.67751499348611
-0.5296877516007361 0.4141467405293665 -7.906291404511434
-1.0517869564532385 0.4501117735470897 -7.152172554593484
-1.566839554180255 0.44500275976902676 -6.436358860232475
-2.039221166018719 0.3972286819682942 -5.720882495130857
-2.4065243547322877 0.2844225966527674 -4.987210139615745
-2.6142899852529164 0.08499964868861706 -4.249874155023253
-2.688456660932495 -0.17253403962350403 -3.5047510840567675
-2.689760892109921 -0.4387910055706318 -2.751103313290771
-2.658349462007566 -0.6950729341085939 -1.9726475777655854
-2.621335560117441 -0.8930027127828747 -1.145486131319561
-2.594275788024564 -0.9860128865733949 -0.3003344838165236
-2.5949131340759997 -0.949160826770926 0.5439758055590099
-2.635761336883395 -0.7235413175351657 1.3175530385129857
-2.6787883381891255 -0.34155981165014204 1.9382412135216454
-2.697656382676995 0.13847418429293368 2.4178155582890857
-2.6888893110649996 0.7063146013692232 2.742907544279195
-2.6386753898509623 1.3261343485773578 3.004039416022703
-2.5463498572537056 1.9908672290041225 3.2512750167916615
-2.414227223936321 2.716211549962428 3.552973430491622
-2.3096345303917802 3.457842932161841 3.983006304746105
-2.3710596458543676 3.97428666212038 4.5245710153375835
-2.566383730853876 4.18172935415421 5.1194689273062695
-2.825898332348565 4.110062627242649 5.662263787208942
-3.136331371879195 3.6533618478862344 6.135046069530449
-3.4185411660011695 2.978942304218646 6.468040501517558
-3.6011705219376653 2.19296447958377 6.694667435692627
-3.6738736680755593 1.355405383285044 6.869811927126133
-3.632404157199245 0.5000951923583561 7.0170533930889265
-3.4736892043034833 -0.3430473036840128 7.153988186227339
-3.2008836105347043 -1.131109890305091 7.301333168262621
-2.8207197282392062 -1.8283770910289308 7.480258120615318
-2.350625533014951 -2.418063699370486 7.693237377187401
-1.7947782313042608 -2.8920795486988724 7.954037905509352
-1.167633812972301 -3.2231920477560356 8.28701727781616
-0.4966377954740422 -3.4149525716442968 8.689938315542863
0.2004274739678824 -3.492931516438176 9.138453283019999
0.9327534176019203 -3.4757217415248793 9.609483053030456
1.6929147058598881 -3.3798003736238527 10.076967558107755
2.485704464384038 -3.215562296052187 10.507857025257065
3.295445652338236 -2.9931725568036187 10.875143032718004
4.119792321909186 -2.7102516897438047 11.173752724142336
4.960825610953633 -2.3555657292330667 11.400728056247978
5.866445531394369 -1.8945487689443452 11.561329388724946
6.784975734338922 -1.330878781918278 11.624687207194377
7.621854968079322 -0.719367360098742 11.595901655663429
9.175505926616559 0.06374748000136748 -23.30044239497539
8.304927694832829 0.08734781001824092 -21.80288145677275
7.795238537875693 0.11514636737358759 -21.03287164708088
7.284470169648137 0.13599716273990042 -20.263712946379055
6.76203993594801 0.15497711774108405 -19.502855650011707
6.233885221467652 0.1756560140387036 -18.74503742907639
5.705130436165177 0.19575184545485297 -17.98638136104182
5.176213105626637 0.21415108465696397 -17.227260660857493
4.648855300710379 0.23087397257409412 -16.46760959858401
4.123158032796872 0.24857283997747914 -15.708673102002127
3.5986284710024288 0.26763180621366295 -14.950743677885445
3.0754496241615503 0.2884693169924124 -14.1920246456685
2.554480042027103 0.31513858090871255 -13.431313855567346
2.0371518644132154 0.3475286420321439 -12.667768220280879
1.523262365698831 0.38664405813979463 -11.900967076217599
1.0143011382590035 0.4344256402889627 -11.132988327546807
0.5126127562666581 0.48738566161846086 -10.364039906052634
0.011160958797290954 0.5423071650033185 -9.595718100684335
-0.5011619830164075 0.6042994766407345 -8.832011565958977
-1.033098943796937 0.6725475781394394 -8.077364129549284
-1.5834544033077995 0.7319016351632498 -7.336964938553819
-2.1154902445864083 0.7478689044357194 -6.620223581933617
-2.5905350901553064 0.7118475725211864 -5.887955071073372
-2.9446251178528287 0.5990471407540747 -5.125218421455698
-3.1315629124700584 0.40326820003711017 -4.350476274245569
-3.1836514666786626 0.15778265868948532 -3.5640584457393896
-3.1540643881000614 -0.09939908519158458 -2.777079756498621
-3.0826038587381266 -0.34251072141245154 -1.9862471122542935
-2.9960135008692674 -0.5409585752751909 -1.1834403436738778
-2.9091710039356604 -0.6763014799092604 -0.38200327454137506
-2.8324054887471264 -0.7291638451487699 0.4108909001970541
-2.7763511195566 -0.6621194345687655 1.1712742267108833
-2.738491323722325 -0.47343005803251703 1.8685865443217464
-2.711950717237496 -0.173392528732719 2.4577664852545644
-2.6965818999546034 0.22109885682435798 2.9257464607359895
-2.6862931308488545 0.7064479114500746 3.329865645796542
-2.6731113572922287 1.2789989771565786 3.684217952637944
-2.6517186279055087 1.9288242058648652 4.020753896553844
-2.6401173970508767 2.6064925371734384 4.373309884252886
-2.7002215333829622 3.1592445703118983 4.750948076825276
-2.8189231190937885 3.515813164330541 5.156594491187216
-2.963583977043701 3.637681315041262 5.538066527453041
-3.088375719077746 3.5874285451350243 5.942281988361923
-3.2044666191152995 3.2462233350196956 6.278397015002024
[...]
CELL_DATA 87
SCALARS quad_param_group int 1
LOOKUP_TABLE default
3
1
1
1
2
2
1
3
3
3
3
0
0
2
2
2
0
1
0
3
1
3
1
0
3
0
3
1
1
0
3
1
2
3
1
2
2
0
0
0
0
0
1
1
1
2
2
1
3
3
2
2
1
1
3
3
3
0
3
1
3
2
2
2
3
3
3
1
0
2
3
3
0
0
1
3
3
2
2
2
2
2
0
0
0
1
3
SCALARS single_component_feature float 1
LOOKUP_TABLE default
0.008223400110170294
-0.05992679208745754
0.008343654308876153
-0.04898852720980636
0.11005848963570103
0.14736396878846264
-0.012661207375931044
-0.05010376129495737
-0.07601036059269467
0.026236042062821194
-0.07720132477734619
-0.06603874432236573
0.007781597233908755
-0.04085921520505369
0.011499163219764151
-0.11000094323540557
-0.10547453705019906
0.010825591454851291
-0.0706809780183741
-0.05204682662294101
0.017423152093229234
0.017796872111403666
-0.04050097924383349
-0.03091027865093321
-0.02207324707840458
-0.11093060515283847
-0.1054670705167381
0.010049078047003418
-0.040998002547840307
-0.005273550137397123
0.00037812551595763425
0.10939011004099743
0.10152650553948347
0.033722080975995584
0.03507920101405369
-0.027856961013006158
-0.025751879119865387
0.0877662811471954
0.1482798532788086
-0.011072318667636673
-0.006060622593643077
-0.04059570311513497
-0.05935403010655983
-0.08305589546793676
-0.04979814373499736
-0.04766702984267954
-0.08731644617903922
-0.0335169692217739
0.022505582469200702
0.02582284029379847
0.06532320197165821
0.006825661591031894
-0.08815768792580944
0.014192242479000186
-0.011979709157871565
-0.0581859163864761
-0.07503456469346417
-0.058370330469606664
0.04507839843645639
-0.0540101760931187
-0.05274082296242634
-0.0242072513991462
-0.12706089669404164
-0.07806416726976392
-0.011347393820902316
0.010079762011234457
0.10936351157170399
0.05048065586801016
0.10008537907204676
0.05132971479840748
0.01859498611960017
0.040007679846777784
-0.01502672669298176
0.001552748503783544
0.036255786160562006
0.09420074414199403
0.10204997877176138
0.03362807802574297
0.07678716793479075
0.012680480320150046
0.13541783728807777
0.1568229959770528
0.20861496709965932
0.01128941237725126
-0.09808313333726548
0.009461941842648383
0.020266805534580205
POINT_DATA 5568
SCALARS single_curvature float 1
LOOKUP_TABLE default
0.03693917699780114
0.03888104985449825
0.008423511948280511
0.006851155236713994
0.003296275434533724
0.0017590376886532585
0.0020039665536867317
0.0021985333620238023
0.0034395406656216165
0.005184226122007239
0.007148910847007406
0.009376330242677193
0.009977988362628554
0.008421644485482641
0.010008613699969672
0.013523498438495495
0.018293888967677734
0.031129929039501597
0.05235641593274001
0.09632670980334727
0.15738995736765024
0.19525324930315396
0.19977218637455235
0.1663050520353319
0.1155546313025029
0.08656223403148189
0.0888710589791327
0.1252935748562605
0.17120671899226167
0.23034303797800357
0.2938877919709771
0.30694365063161433
0.29241355150925996
0.23588113911204997
0.14334786851820586
0.14316473000599025
0.24163380587715483
0.48576332290784596
0.6420900619571455
0.7436148403802048
0.7163860624180581
0.5678427940832927
0.41906369773803775
0.21066888903513534
0.15135207026459174
0.1388113375846208
0.14790036393185463
0.17063312223198712
0.20368231910410306
0.22979666667191928
0.23665595321711475
0.22494846496530127
0.19241676432951033
0.15212101847380863
0.12380372160343389
0.10957563583659287
0.10721075295880882
0.10949850278606064
0.11195716776559246
0.1142416890086105
0.08545111294774671
0.056660536886882926
0.02786996082601914
-0.0009206152348446434
0.04674778467846108
0.04710720925664288
0.006434858293249836
0.0037565011320270943
0.0038035601383477817
0.0046661779796409505
0.0053582817992461704
0.005493530062477052
0.004873176742992661
0.005649561078199096
0.00608994693085946
0.007068458591953264
0.00932695371878493
0.009897924241974098
0.013233303855987399
0.018177667663737077
0.02373286096883021
0.03546042546371089
0.04933735217234967
0.08682782669426592
0.14929284331614656
0.19162274338571988
0.20072268649709746
0.1704451816555581
0.122891619972434
0.10212175850078634
0.11975349740172327
0.18353083754597388
0.25632922246090156
0.3076343218739425
0.3596396805708313
0.3331093845241279
0.2627988067657624
0.18908409030174225
0.12239654652553145
0.20235047411971285
0.3611100695036432
0.5089177470688079
0.5916783393782173
0.5648348893657831
0.4671852527324357
0.3381043152859575
0.23100984493138121
0.18185019510485903
0.16408951669637856
0.1740953775457742
0.19284154544040957
0.21572231511464096
0.24075835020704126
0.24714243900941452
0.2330308656743818
0.20266531783475036
0.15786203982446187
0.12201383055881979
0.10503045242216495
0.10114009554649082
0.10509970480235724
0.10586831663436727
0.10744918484537898
0.10986266430890587
0.0819346864118009
0.05400670851469594
0.026078730617590973
-0.0018492472795139936
0.036927720564754456
0.0388724327697332
0.008432935157306039
0.0068580471456386
0.003295981144032914
0.0017556476502429827
0.0020033175648659193
0.002200371443506664
0.0034447471159509274
0.0051899750451114566
0.007153652897219765
0.009381276270694879
0.009981192110651918
0.008421432703167595
0.010005253102546166
0.013517411927762136
0.018285623450560878
0.03112523218855248
0.052364402841642815
0.09634525324648681
0.15740545468761535
0.19525933035957418
0.19977002547853082
0.16629834868723015
0.11554304253231146
0.08653350824030082
0.08881051912764536
0.12517228570987363
0.17102672118052206
0.23016381817690115
0.29370999361316014
0.3068549938505616
0.2924477167137446
0.23600698780503387
0.14348784186812813
0.14312496330581667
0.24134897882946774
0.4855486018923218
0.6418508936468127
0.7437455654943667
0.716662518080866
0.5681863371748095
0.4196129212321409
0.21076974737581086
0.1513606393120078
0.1387696879950833
0.14782985028531292
0.17054864477758153
0.20360020759200703
0.2297428506658842
0.23663962552713994
0.22497155846388472
0.19247352625422498
0.15218192602979808
0.12384983218889817
0.10960256215441645
0.10722312629198491
0.10950837285185999
0.11196554926387152
0.11424924803550078
0.08545726049120018
0.05666527294689959
0.027873285402598993
-0.0009187021417016022
0.04477269702391362
0.04536608444605764
0.006350476335718516
0.0040643849783378915
0.0036914775042196277
0.004153903937107502
0.004678490458150405
0.004706971682924002
0.004369403888502949
0.00533417395279173
0.0060910863961207325
0.007345188725913898
0.009273364705388953
0.009496936231441813
0.012568686195423643
0.01731124946905665
0.022789029676563634
0.03455470951335822
0.04962040942378062
0.08821587154958745
0.15049513217075236
0.19222402030738425
0.2006069891932041
0.16972939215309651
0.12164751913711165
0.09979420435641702
0.11540097000820948
0.17605509863653585
0.2461212044954868
0.2997471377882367
0.355001866163027
0.3327878955236916
0.26789741061522915
0.19041154581953923
0.11776590889158149
0.1888604247164733
0.3496277344330465
0.5169713389595181
0.6161269502128229
0.6048493566299129
0.5140643621794687
0.3749884392665899
0.248306822846554
0.18326103303460672
0.15991714153638245
0.16707292417677733
0.18524080517678768
0.2091386077876156
0.23634509887091806
0.24625503549931685
0.23533549934588607
0.20734361764366166
0.16347562129042886
0.1260556916382254
0.10694164241438489
0.10151777969277938
0.1047683908642926
0.10618244323633128
0.10813349012809209
0.1105726577648685
0.08249887378219656
0.05442508979952461
0.02635130581685266
-0.0017224781658192884
0.031712662579930655
0.0359552980553653
0.02010984151148804
0.014496214516021694
0.006196490413080406
0.003476525551149365
0.005338402259697218
0.007428728919649637
0.01018947772055475
0.011055223324116648
0.011860170922144723
0.013790543924944337
0.014266125008118012
0.01424384532082173
0.013671317647387424
0.01505039266492488
0.01751806693998725
0.031031225558027356
0.06213719528099415
0.11387800907362111
0.17145501696110288
0.19984977300342635
0.19734463942232536
0.16115091551677455
0.11107242005792543
0.07382620172810271
0.05110448352283122
0.03998553862659496
0.04948433032816582
0.09663201327456343
0.14921677164323222
0.22182019076083945
0.2885082525865203
0.3163489825972907
0.33438591523344385
0.3077988588155844
0.2402437036244546
0.32679596298282204
0.2985256293451837
0.8304283194884315
0.8812146874074187
0.859355141103042
0.8599653448733654
0.37417033156532886
0.19838166424189466
0.1325538942681997
0.10904916003807633
0.10767847804211084
0.13050754057476283
0.1682978100332046
0.2009118928142055
0.22342346501456384
0.22563362880604002
0.20168773857540684
0.17008652573836616
0.1415424264079198
0.12516209987862004
0.12095819196081864
0.11918440033191964
0.12017404746500715
0.0903769875181514
0.060579927571295655
0.030782867624439908
0.0009858076775841607
0.03216256080626621
0.037172135455276804
0.024517042511063875
0.017479433704578808
0.00801476664712472
0.005009215227214581
0.007335509400133002
0.00978457980014573
0.012585583169401898
0.013045272631733681
0.013494178783892414
0.015323519603980871
0.016095538636770695
0.016963690531216935
0.016010484537701153
0.016783027348141258
0.018577824231146928
0.03275533037216744
0.06692671089138995
0.12092576274471632
0.17675601951398065
0.20124202705824196
0.19616663123347944
0.1594443944169171
0.1133727433205129
0.08539928821386515
0.06381323632344539
0.04284741191475109
0.045370645728406545
0.07671606785073462
0.11672264832595591
0.19433343425566307
0.2736564686225836
0.3289675151043724
0.3909864152011561
0.3910784577983371
0.32043478216057253
0.3342722406240656
0.25034552514283415
0.7846423594616372
0.866569238255487
0.8635809622551689
0.8714223498768086
0.46088457124779303
0.23185468673996731
0.14289468368654268
0.10590254567979172
0.09302560375895703
0.10807603636413549
0.14416411296220139
0.18152285850843544
0.21431776356743118
0.22899987680326622
0.21499180005390472
0.1867804765641783
0.15510030067895136
0.13367309744412834
0.12594049360592896
0.12171094549247441
0.12202137181522324
0.09196726166842217
0.06191315152162111
0.03185904137482004
0.0018049312280189744
0.03927602282578052
0.040722892454247726
0.0071559332701948905
0.005724887737913737
0.0034066332776886096
0.0025181905894537658
0.0025562093499239395
0.0024545132126628484
0.0031107662906922507
0.004652694613144993
0.006480028128071567
0.008549880184647052
0.009528419797427962
0.008603574716925253
0.010741256737573885
0.014725398086061542
0.0198272635567789
0.0321095820501399
0.051111252763092675
0.09320026027895843
0.15475934904585742
0.19417683529002464
0.20012165943302418
0.167498334991902
0.11766552345101099
0.09153390268864507
0.09916079675642923
0.1456792731688859
0.20163904479322298
0.2600200296332617
0.3223482130176232
0.3205365626805351
0.2850636932376899
0.21400645043692781
0.1258262065194297
0.15557416057897427
0.29043428219243
0.5147618685665158
0.6616507767787669
0.7112988502750313
0.6586316589711187
0.5042283729088695
0.3372104567579417
0.19615486184707467
0.15163022818100624
0.14725017692546943
0.160776262346482
0.1852124059622616
0.2172259690213975
0.23800257122400936
0.2382952578208584
0.22000941904666016
0.1821887919908134
0.1418309765011635
0.11640844788275626
0.10549534481829377
0.10550623740770557
0.10796341784575829
0.11052020489244424
0.112916709510555
0.084377792889657
0.05583887626875898
0.027299959647860972
-0.0012389569730370392
0.04496604213549184
0.0455343157668139
0.006350088424284549
0.004025679014827672
0.0037016445916292487
0.004205968023769892
0.0047475568990739256
0.004786310193332219
0.004419372183772138
0.005365056272945292
0.006089080766751451
0.007314769281251293
0.009276111068174556
0.009535118070567561
0.012634241421470427
0.017398083953140568
0.022884320562151776
0.03464367308268437
0.04958807673037461
0.08807197759664302
0.1503707879978085
0.1921628927266715
0.20061942836192606
0.16980137610778193
0.12177366974464875
0.10003542141593849
0.11585714541362623
0.1768558698393768
0.24723855328248606
0.300645891391074
0.35558978552810266
0.33289485162843147
0.2673607155812243
0.19020114136141464
0.11814018037796975
0.1902182533022565
0.3509703298705006
0.5162911556805126
0.613765351079732
0.6008557518981561
0.5092410331247004
0.37109826417196484
0.24638277183113405
0.18307193625023813
0.16031085477618573
0.16776965232237476
0.1860139874359606
0.2098257040217315
0.23682554158489497
0.24637966468830655
0.2351293668585011
0.20688274194887382
0.1629000037800361
0.12562704225772886
0.10672635913196178
0.10146186835202
0.10479082198989405
0.10614580650170194
0.10806292952162683
0.1105002914263688
0.08244126392454525
0.05438223642272169
0.026323208920898136
-0.001735818580925419
0.050044304066510226
0.050283874651009454
0.007165708176544529
0.003860449329637052
0.004191906935115571
0.005422722807663371
0.006362169360114922
0.006670200875564391
0.0056643609762832515
0.00616125019763067
0.00616467292355222
0.006761944734873416
0.00951160036394949
0.010591862314464419
0.014292782610362672
0.01950269727091041
0.025154162154216203
0.036919751155796585
0.04905799206064953
0.08488076543494338
0.14759591785372145
0.190735572593764
0.20086739558684527
0.1715389137816614
0.1247437014538702
0.10537945380011064
0.1256442849642176
0.19295294347817554
0.2681826353797378
0.3154116816132932
0.36195179619404494
0.33065914529748736
0.25611353497015493
0.18940086607595785
0.13222843651650074
0.22208658385075714
0.3713806300034432
0.4925471506226667
0.5524230895413607
0.5046676439786517
0.40226232907056353
0.2901896989745749
0.2110916127166406
0.1813866577121785
0.17136401565144188
0.18509518909386694
0.2040069050284673
0.22471437149572582
0.24600785887819548
0.24710882435659545
0.22854829140169897
0.19521832212680276
0.1498068257648176
0.11675100974534851
0.10302653466189503
0.10126114888010815
0.10601686735618107
0.1055837973028947
0.10647576465634717
0.1088196431572483
0.08111006131299131
0.053400479468734316
0.02569089762447732
-0.0020186842197796734
0.035435484599264926
0.03780051652436308
0.010100156098617124
0.007974167377961677
0.003340762065189625
0.0014367962203571318
0.0020639733166617916
0.0026810850526649077
0.004425208911678532
0.006156636722473659
0.007921060790485462
0.010134412395844984
0.010529721458732657
0.00861289986488589
0.009735489790475225
0.012842380072859098
0.01725484599510418
0.030548754004872593
0.05365524450997741
0.09917105019869721
0.15975212795275193
0.19614810921363832
0.1994296212052866
0.16532060742808258
0.1139143298781152
0.08229504790894876
0.07972705432281069
0.10687278739279835
0.14414614727603803
0.20302695499212672
0.2661889725700486
0.2927114180574956
0.2964278649389743
0.25424807435579255
0.17479915983596395
0.14747136941819652
0.20641174120144062
0.45257810049167135
0.5902529892334386
0.7596260516494795
0.7538536702654582
0.6203738231589593
0.5107218924387795
0.22814103915605916
0.1539498828482655
0.13349038013219178
0.13788451843906807
0.15802394258195224
0.1909860060924139
0.22099138305620897
0.23337386776598595
0.22771362147226906
0.2005685341859452
0.16136539490255836
0.13109384844862484
0.1140027690224179
0.10936596799569939
0.11110007072525836
0.11322345114770661
0.11536310157505339
0.08636625839248707
0.057369415209920754
0.028372572027354437
-0.0006242711552118807
0.050308815716239054
0.05056215614676711
0.007262533222319678
0.003909119975968956
0.00424326462629484
0.0054787626742107435
0.0064364982289445575
0.006757762509669502
0.005725396914998848
0.006201565871790411
0.006174128484121814
0.006744737562181699
0.009530157892573896
0.010648017900114501
0.014374857014947688
0.019602820129689183
0.02526080788867684
0.03703350274400438
0.04904375453951785
0.08474104212520436
0.14747368871634917
0.19066996983691495
0.20087691423986687
0.1716219432992998
0.12488171637140781
0.1056124619145173
0.126055717198446
0.19357520711071957
0.26890773394238227
0.31580668428351466
0.36191630250543705
0.3303423259056994
0.2556533402964309
0.18950259828555197
0.13306203994978452
0.2235121943088987
0.3718580933069306
0.49117123301672927
0.5494410521260931
0.500243988624908
0.39773250398898485
0.2869742199782422
0.20983877206508933
0.18141953557987905
0.17195048326733262
0.18593696319686745
0.204829220438614
0.2253448479826294
0.24633685554829815
0.24704432554367528
0.22816755798586055
0.19464380611974644
0.1492230538598837
0.11639430024347294
0.1029157197325942
0.10130109992285086
0.10610392534812675
0.10557079150473687
0.10640530101207206
0.10874254942612611
0.08104931153677235
0.05335607364741858
0.025662835758064814
-0.0020304021312889525
0.04793991526051023
0.04819683857159686
0.006596201279802094
0.0036853674927900364
0.0038942947585989514
0.004953476843187429
0.005739580741940162
0.005938905441145945
0.00516686034347784
0.0058371989295485215
0.00610723816360673
0.006936635942710748
0.009382482347709298
0.010147281450854187
0.01362487357668596
0.018674793956482204
0.024268613318857903
0.03599771485472067
0.049212071061292384
0.08607475305826055
0.14863793893372929
0.1912856392117784
0.20078123113595006
0.1708548714360194
0.12359263882753278
0.1033836343582436
0.12206481554015129
0.18733421043819737
0.2612841563418986
0.31112804057135657
0.3611410371729601
0.33258422746993577
0.260143084681907
0.1889397260908502
0.12577682127850412
0.2099231479354819
0.365895933856168
0.5032379370264879
0.5770674480197213
0.541977521247887
0.4417728759950492
0.31893160755317207
0.22274054052455647
0.1814647064255846
0.16670509907736783
0.17818926293199822
0.19709326796202592
0.2192411815862831
0.24292932064738526
0.24731530214244402
0.23147576682102014
0.19990829425604176
0.15476695667210716
0.1199167642847827
0.10415665514311107
0.10109287117574903
0.10538999310766674
0.10573588524526413
0.1070745547514339
0.10946599971719481
0.0816204848870906
0.05377497005698639
0.025929455226882184
-0.0019160596032220256
0.0369814526052962
0.03891289254977257
0.008389108179436763
0.0068258931576914575
0.0032974112883219337
0.0017716241142958233
0.0020065159731564343
0.002192000858115593
0.0034206325308568965
0.005163249643394818
0.0071315539669781275
0.009358174555945705
0.009966276369599724
0.008422521192969106
0.01002106285837631
0.013545961435672866
0.018324331468113852
0.031147278598029696
0.05232715253953036
0.09625863532182352
0.15733305465384434
0.19523089607724492
0.1997801107231877
0.16632969527911362
0.11559727166819289
0.08666777767277924
0.08909338269509814
0.12573889102873712
0.1718677531978832
0.23100089524094644
0.29453991953239694
0.3072684944846972
0.29228719121355246
0.23541853373245764
0.1428431773102609
0.14331991548712064
0.24268627575779042
0.48655204123226886
0.6429559640672716
0.7431303127370843
0.7153659658173699
0.5665797797689098
0.4170536401655996
0.21030011341006175
0.15132159916509932
0.13896505257195874
0.14815981674402223
0.17094347764286852
0.2039836346601276
0.22999377167697024
0.23671527717907104
0.22486308905460453
0.19220798363770317
0.1518973765634202
0.12363463641036485
0.10947703152517527
0.10716553696074024
0.1094623393918697
0.11192638433492505
0.11421391016566355
0.08542852360720549
0.05664313704874742
0.02785775049028935
-0.0009276360681687162
0.0434100638060868
0.044190350855400636
0.0064016166344906394
0.004380340563259657
0.00362137301580047
0.0037761039875448756
0.004177731951003874
0.004137311482550517
0.00401670396461992
0.005119346462944071
0.006119424883478204
0.007580604168421011
0.009272180521646505
0.009237478169433148
0.012106687703480282
0.016689783487178724
0.02210138439602608
0.033930204331668885
0.04988006961681398
0.0892811042150741
0.15141350757538388
0.19266796804666236
0.20051189572224395
0.16921128721134573
0.12073348710091461
0.09801063050323447
0.11199355239449181
0.16996181641364158
0.23747580097132404
0.29256672882982726
0.34993285847438815
0.3315034959097931
0.2718769778839553
0.19264544565194971
0.11591216460387233
0.17928927836299008
0.33876987855221763
0.5208153965996728
0.6321442259658534
0.6330721789864948
0.5491453875848493
0.40398605244897223
0.26355894842505195
0.1849744099926174
0.15727904582483204
0.16213760040684758
0.1796278286473572
0.2040301387244386
0.23263952887564077
0.24511189862366248
0.2366351439064714
0.21058416027108653
0.16768440783666672
0.12928943794155628
0.108650237539603
0.10204547784525679