# vtk DataFile Version 3.0
vtk output
ASCII
DATASET POLYDATA
POINTS 5568 float
9.356373060951485 0.45329838452540766 -23.430161981841046
8.47479261862683 0.4450049593895555 -21.902047723817507
7.96491554069676 0.44936418251205734 -21.13691617649615
7.453412418710761 0.4491829111121503 -20.3739569463374
6.9314739395206395 0.4477590958747271 -19.618450315287888
6.405680002680562 0.4482015473732887 -18.863699419783064
5.8795583150461255 0.4489254730836533 -18.107255435944083
5.353574008177889 0.4477599075061765 -17.3496759102648
4.829772729344708 0.4442562918915347 -16.591209051567738
4.307621809810751 0.4416155946301042 -15.834050628340464
3.786225564107765 0.44108619978390345 -15.079089233883838
3.2660682047573912 0.4430341202651401 -14.323858455999007
2.7481547586396076 0.4523315604527515 -13.566467837635251
2.2330827970675142 0.46677962751467567 -12.806071346225476
1.72036079996276 0.48779578190024964 -12.04265278785226
1.2112325712646306 0.5199465453666191 -11.279719804711894
0.7064926248460667 0.5581327654653397 -10.518103685162679
0.19938096346387013 0.5996298483818412 -9.758649892010963
-0.31938339977951336 0.647827983318978 -9.003479908361077
-0.8547405582329177 0.6972656549013619 -8.252439968513372
-1.4044492103757618 0.7289447482565906 -7.50861142275273
-1.9303473660813455 0.7059342251887158 -6.789102137251021
-2.3872318931853647 0.6265099484578008 -6.0539698379675055
-2.700679047316605 0.46859956105372214 -5.291885659180193
-2.837528701292759 0.23692308497645287 -4.522097044467701
-2.853950835067593 -0.03154667868125738 -3.7433356895271173
-2.8087548439535213 -0.30059538880450337 -2.9669870987967615
-2.742195121674053 -0.5529390405580838 -2.1838535005650552
-2.6752932585004716 -0.7597299661809105 -1.3761894611250676
-2.6163161317039756 -0.900522798830676 -0.5644913762079865
-2.5755625106616304 -0.9509544362289226 0.24539194466437364
-2.5661165276446223 -0.8650286061628009 1.0107314958892193
-2.5743542911829596 -0.6533723573130562 1.6852636642232417
-2.592206583582963 -0.334529135299417 2.2565590552179997
-2.6161303096605533 0.08110240804208857 2.707234227741015
-2.6478144985380743 0.5870222068865568 3.0938678089989677
-2.673039193576964 1.1745644668897346 3.437716549102141
-2.684784057368087 1.8327279791203384 3.7830032177499557
-2.7020021808648607 2.521191860099572 4.1664395314666125
-2.765115511882823 3.1479590220951987 4.583592216798621
-2.8948327438920374 3.5505967162810834 4.996579921394929
-3.0657141429229773 3.751412902678475 5.469602296516337
-3.2252725767506725 3.645068476151817 5.929555315754563
-3.3638591694482387 3.2868494401706685 6.307068407568229
-3.4518502935932385 2.70600818167876 6.6143675265908355
-3.4539295089446003 1.968045412649029 6.860996906962036
-3.3517979175485406 1.1174710803377725 7.0471358663006365
-3.154172143942115 0.24081635951010305 7.177955720034543
-2.8598164459199005 -0.619856471083723 7.287857325732879
-2.4646336033968836 -1.4396005516556025 7.398550677172011
-1.971103280206946 -2.1883858734581887 7.525166406295442
-1.3816875940654811 -2.841586679210129 7.6797150287369425
-0.7046567364141545 -3.3653533049247875 7.884825396849429
0.02470657548845323 -3.733144215428629 8.15334711317135
0.7788399843935842 -3.959416793311742 8.483873390431022
1.552015561213709 -4.056851402518021 8.866638276920703
2.341576956236991 -4.049465571079344 9.287172085947704
3.147761187789781 -3.953772263165127 9.717156691122549
3.962928864982497 -3.7783687245437516 10.119336304182022
4.786394816172267 -3.5213404951028147 10.468106114142218
5.6266747420374275 -3.173622735089493 10.74759553850928
6.508213103234096 -2.706732080048474 10.951659900936697
7.4197220970057804 -2.108387788222256 11.058297442736206
8.285733147334945 -1.4213686094101734 11.061003412440492
8.843519758028508 -0.30198830325671494 -23.155239734192524
8.028034940006904 -0.25259233753097743 -21.72580621432133
7.5235491918058015 -0.20190987904764462 -20.94903025303817
7.02161526269495 -0.1610039933638419 -20.16968652159271
6.509060820009785 -0.1234307843593134 -19.39783454455515
5.9895771533143565 -0.08495525351791339 -18.63096283006969
5.469570003438939 -0.04845067038903965 -17.86393040399569
4.949162898456797 -0.013949773604833376 -17.097105826635094
4.429997491838546 0.01908271402400319 -16.32992456409033
3.913252546348692 0.05264892493772408 -15.562393620980938
3.39877891195727 0.08522278897371194 -14.79396651567995
2.8861086456834144 0.1173586114052198 -14.023929905134072
2.3754257479643304 0.15236536900733622 -13.252061797537088
1.8690113924778182 0.1938529479763373 -12.477687998158524
1.366540158617505 0.24214752455872326 -11.700417284804784
0.8695474650595767 0.2956881830416106 -10.920561544801528
0.3823930030869418 0.3548002830660827 -10.137586354297556
-0.10215529382536381 0.41576597692490586 -9.353753746337143
-0.5969835479607304 0.4857604098388526 -8.574736550939782
-1.1154382066411683 0.5695804345614187 -7.810828470914057
-1.6592586058591008 0.6570881757112648 -7.070322977676172
-2.195502929833191 0.7160934000776231 -6.355658108143047
-2.6945011042980886 0.7313170896484159 -5.628861751837452
-3.1065382571634848 0.6750371819583362 -4.867945324618787
-3.364195273647516 0.5219544081514872 -4.091037492211341
-3.4672919870423993 0.3008726424379499 -3.3035500429982756
-3.4659144144149754 0.05579871586045562 -2.511828361877175
-3.399411544516001 -0.17932711177607774 -1.7148771425165092
-3.3017479572432586 -0.36725394781066184 -0.9114377876841142
-3.196368487723796 -0.48443742705314036 -0.11088641538049138
-3.0958126070922733 -0.5163735875274876 0.6741180985270832
-3.0078242208002726 -0.43062415987968367 1.4292139131417576
-2.9338412662917475 -0.21942618222894497 2.1287224674984757
-2.863908952870183 0.1035932523906882 2.7060528068493017
-2.8014376337220925 0.5140988310076776 3.153313566472145
-2.7283280081148074 1.0080605481835978 3.5398296324323892
-2.6461326859480594 1.587121508940105 3.8789532060294944
-2.554010944049265 2.2485521476449617 4.196378397514564
-2.482813894405064 2.931830548435506 4.532178794111875
-2.5393105475659747 3.388366776791676 4.902327897458654
-2.6633907446747287 3.652269194186222 5.3443250655641155
-2.80534071546648 3.653691152386166 5.666392549195185
-2.9233135798368104 3.586578088040002 6.0055443261957535
-3.049200999854223 3.1909293365222893 6.293194534464991
-3.1483567075791377 2.549784384713634 6.546047567940402
-3.1905716225319374 1.7671046411563904 6.7392100007891775
-3.162414135447747 0.9276507282131989 6.874561795777266
-3.0532446739496235 0.09030639382040606 6.975835763426169
-2.8611284301218287 -0.6840646725267662 7.074545918916464
-2.5871165924870816 -1.3524718843330048 7.197875870269244
-2.243592993640524 -1.908662203681994 7.347912886064197
-1.8320943352232328 -2.3626729119337453 7.540045390342597
-1.3601568506720036 -2.702297029728197 7.7928675324924574
-0.8249093815269002 -2.9385643215089114 8.115924226037357
-0.23395985855456647 -3.0865923099600048 8.497627946980534
0.42722492047243144 -3.1574509432369458 8.926095282224306
1.1448019305384418 -3.150453142151311 9.375193040833505
1.912687556215051 -3.0677206081392216 9.810296298581124
2.7135010591460205 -2.9124599303767664 10.199302479307365
3.5407096024745917 -2.6922285710851983 10.526606070384418
4.405042036288177 -2.405513508202521 10.785598636726405
5.3526941369560355 -2.0343425338169174 10.973714166480898
6.347828178854215 -1.5700274409960853 11.060106704486977
7.260502946312238 -1.0634249384789585 11.042033051875585
9.371125980773218 0.47502522899294725 -23.438070492625034
8.487591118977644 0.4650124049745228 -21.907042059112555
7.977539996378075 0.4680452219499874 -21.14221448763041
7.4657459039274245 0.46668811147212097 -20.379698614497332
6.943522837655673 0.4641480489306582 -19.624636687670687
6.417533852549429 0.4635007985019825 -18.870212622370598
5.891224273355872 0.4631988603661708 -18.11405413773902
5.365067665415656 0.46101015953210184 -17.356722070662542
4.84112074021846 0.4564584367297333 -16.598486837057052
4.318802169102815 0.4527796635349071 -15.841607412455229
3.7971963875898345 0.4513021223669966 -15.087015395059455
3.2768148824557635 0.4523858349941611 -14.332194263504979
2.758687070525607 0.4609473703579513 -13.575207359223654
2.2433588966979574 0.4746211406681182 -12.815199100622294
1.73033450043641 0.49485596616073163 -12.052164598041236
1.2208518638246235 0.5263947729774583 -11.289705678761104
0.715599260577377 0.5639829502750354 -10.528686413955608
0.2078298489028424 0.6049239005622293 -9.769912177741702
-0.311633780260963 0.6524991236199497 -9.015405041468263
-0.8474912434015198 0.7009509553320127 -8.264713567981165
-1.3973995098387402 0.7310234190242588 -7.520748721173018
-1.9230674458035764 0.7056556912908672 -6.801009024295656
-2.3788430748987515 0.623511877051015 -6.065487561186162
-2.6896231314105705 0.46266431729562835 -5.303072776184152
-2.823094697006979 0.22864619767420213 -4.533141310343119
-2.8370272851172453 -0.04124413743071448 -3.754464078580293
-2.79057270846402 -0.3109957240815689 -2.9785108243666234
-2.7240107989379756 -0.5638343167882675 -2.1957661328517926
-2.6579950683996 -0.7711753484183856 -1.3879583090991838
-2.600357792644878 -0.9126598943894424 -0.5758900059468532
-2.561343672234174 -0.9636351102515799 0.23479030899483744
-2.5541638048057043 -0.877690785400227 1.000544976344698
-2.564722844490305 -0.6659830634447083 1.6744952956879433
-2.5850846068691324 -0.34717608950569423 2.2457670519547017
-2.6115081822874493 0.06872595255302022 2.6966736757412195
-2.6462358358319498 0.5751963393513349 3.083467136873547
-2.67457322617424 1.163201547171468 3.4275799227309043
-2.689318651080309 1.821474880212927 3.773777563043103
-2.709124632316473 2.5102445688536763 4.158691985443813
-2.7724329030214587 3.1423605647251107 4.577239918491346
-2.90240457837633 3.549481439994593 4.9896072284833775
-3.074379740465891 3.757527658341718 5.468204475315606
-3.2352289469457864 3.649934458939472 5.931909532619525
-3.3742511068945062 3.2926792196691284 6.312253072002769
[...]
CELL_DATA 87
SCALARS quad_param_group int 1
LOOKUP_TABLE default
3
1
1
1
2
2
1
3
3
3
3
0
0
2
2
2
0
1
0
3
1
3
1
0
3
0
3
1
1
0
3
1
2
3
1
2
2
0
0
0
0
0
1
1
1
2
2
1
3
3
2
2
1
1
3
3
3
0
3
1
3
2
2
2
3
3
3
1
0
2
3
3
0
0
1
3
3
2
2
2
2
2
0
0
0
1
3
SCALARS single_component_feature float 1
LOOKUP_TABLE default
-0.04502819559244485
0.056300241054814806
-0.04794304530287564
0.06666587689671057
0.05505111776485541
0.0678576374374829
-0.05017932623316747
-0.018707926491956545
-0.026642742314237012
0.024039902696013717
-0.018111760861040754
0.024660260439338978
-0.07207284573153609
0.024307619481292966
-0.00765407743852487
0.0206790543547585
-0.051745367709847126
-0.0136832102634299
-0.03542601910925371
-0.02835491182805913
-0.030806705579424172
0.06168715454747074
0.09268602451617822
0.07171602522614662
0.04789568676926333
0.06332824953927828
0.05852473556187681
0.04625352647328394
-0.009361825572439805
-0.06414216476679385
-0.020341034742164196
0.04239171279165253
0.01369754983548111
0.05453088922212782
0.015308771491573073
0.045787974964943655
0.0023025919951365527
-0.06221539027097036
-0.13680070047408266
-0.06337850730324629
-0.028458853930145425
-0.06572069790406501
0.06188977507702945
0.09058966045049344
-0.08240468195605756
-0.035080298653159474
-0.012604178608744254
0.0007232374725346727
-0.010101312995119481
-0.00512509832704272
0.02953531124588437
-0.00137040441591596
0.044870388589146964
-0.05783815453598849
-0.02429826261248632
0.16610416895515073
-0.07020729437492047
-0.021897667446941854
-0.01702218811578386
-0.033976241110891724
-0.005788446898914959
0.045987405162217956
0.06866764298115635
0.027832272591870544
0.02456540644247678
-0.03841111459275008
0.024155963766333187
0.031578997847671195
-0.06905822287645791
0.07996961682765119
-0.002748043811229562
0.031667231388918464
-0.12817606597994619
0.060639625950092826
-0.05813269658639094
0.05847922268803063
-0.02998917391228129
-0.06167602248406728
-0.10521098571519077
0.040095204649241656
0.09172677457028063
-0.008382988992665812
0.13394468973781554
-0.14575587591669534
-0.058937241071970695
-0.04852980421775647
-0.039197423824602874
POINT_DATA 5568
SCALARS single_curvature float 1
LOOKUP_TABLE default
0.03935045735077797
0.0405453879046063
0.006781941250533635
0.0058357926872808705
0.0029820945648997388
0.0020971651370611387
0.0025295212673823388
0.002746318654955669
0.004144394467566092
0.0057683690972452194
0.007325133851069126
0.009933990759694358
0.009614305546670485
0.0090543834951122
0.010909292614187978
0.012154393658959992
0.017071296137346533
0.03322210766479015
0.05845647705233752
0.11201162552444292
0.17568797072126804
0.20314164765607512
0.19681332476657154
0.14984371752728912
0.09661646447231557
0.0749986104757855
0.08693180335875508
0.13671576267990831
0.1914006598692072
0.2484619706931701
0.3101088266026993
0.3141774491888617
0.285215424528397
0.22111892791238397
0.13011641714869135
0.09994652909275223
0.1891220218025321
0.34383739734737423
0.5759438381081746
0.681858363979449
0.6651972064760164
0.5890640295397701
0.3893145049717388
0.22851607776722413
0.15789022096971456
0.1338549289249973
0.13078987601217912
0.141504157212958
0.16437791755810063
0.19082316542641758
0.20648431986594934
0.20883354177496616
0.19022952068729584
0.15707685755173614
0.12865728619696892
0.1112737633394941
0.10861429175469255
0.11356204829256329
0.11843620864514229
0.11949335556218331
0.08889704318164623
0.05830073080110916
0.027704418420572086
-0.002891893959964989
0.03681635517048653
0.0393081409882199
0.010004683723360018
0.0075763685233986465
0.004231873591759931
0.002400271987318375
0.0025667786341831158
0.002680271964472853
0.0032649538757803013
0.004977657340415548
0.0066578253616748385
0.008278281490228367
0.010513533166247434
0.009095769590145563
0.01085035043821091
0.017594987003641656
0.024354378125662428
0.0322437331482853
0.04653736806780425
0.07639297028473868
0.1313683452282543
0.18332732113005795
0.20289228624114128
0.1880627515486146
0.14420329829703282
0.10899867032049179
0.10393349179270808
0.1315046697081933
0.17325445040933102
0.23312216914291387
0.2968947046913466
0.30672691012551295
0.2908417696557194
0.23162601954865042
0.1430250242129091
0.2355983999096439
0.3681676709635496
0.7191138855204084
0.7737570227556811
0.8028627333617927
0.754868925253852
0.44801684753113546
0.36350795722966944
0.17398716003259448
0.1421496844992366
0.15551037370959173
0.19062833702238557
0.23614675252100162
0.28434618519439825
0.30005217483234364
0.28292955933077024
0.24166510600433347
0.18305615272054834
0.1363937791162653
0.11367845560690959
0.10734560596419487
0.10679154609660334
0.10478278314906815
0.10330901523098047
0.10589196538220659
0.07934835326902935
0.05280474115585211
0.02626112904267487
-0.00028248307050236787
0.03948945565427389
0.04065190025203848
0.006753168176441733
0.005820930069443426
0.0029804388210228024
0.0021223298627615654
0.002571519586355931
0.002803904399029829
0.004227835333614334
0.0058447624020948235
0.00736283126324589
0.009997241125814483
0.00961902208817732
0.009116174954029329
0.010974814639763228
0.012069269154842707
0.017041752641813977
0.03341847238538772
0.05896396430505472
0.11315074985492386
0.17688460400206873
0.20363126683492622
0.19657989205396498
0.1487971774927154
0.09546991660651132
0.07425825723453922
0.08666424512643495
0.13697182508870975
0.19190594113189866
0.248806298230198
0.31030961370726834
0.3141649340279496
0.284800654216495
0.2206603558944564
0.12981293049959416
0.09746183116693861
0.18487282815386363
0.335210801715186
0.571697191366449
0.678837147467316
0.6637658423724143
0.5912967805373788
0.3894126109498528
0.2300772528830854
0.15832118601906248
0.1334070211667652
0.1295630939806085
0.13956584934137228
0.16187785833451054
0.18837678755595078
0.2046257542534315
0.20792524382571148
0.1902742699655537
0.15763943445947537
0.12921313400078882
0.11157443227137373
0.10882443872310885
0.11390529031238428
0.11890018147855648
0.11984362369952015
0.08912022213531842
0.0583968205711167
0.027673419006914973
-0.003049982557286751
0.03671461623630532
0.03934507601696362
0.010430057884395334
0.007807963514093177
0.004410426421271028
0.0024826110670987667
0.002697147592092088
0.0028544145769853414
0.0033754049618308518
0.005090092312221802
0.006675958191120009
0.008201697018874155
0.010712893481051295
0.009375045155350141
0.011122608143253837
0.018391925333670053
0.02562351908748142
0.032701628320972946
0.04591646254276945
0.07335793227634747
0.12691446360411743
0.18119010036284405
0.2034003701757749
0.19189595218155497
0.14953146866704137
0.11305124975354251
0.10623967606919195
0.13136900398979323
0.17139351374448106
0.2312328571673619
0.29488861037503145
0.30512551460876064
0.2904468179697333
0.23199245768381382
0.14434501579529638
0.255943733818276
0.38935898771823985
0.7543105297281124
0.794489516294085
0.8143578441047178
0.7661798636143557
0.4254324084548444
0.3580376193018504
0.1684800013419263
0.1404972108638376
0.15859793510694714
0.19915439407684954
0.249519342555427
0.30078663401783956
0.3140845278927709
0.29202051256740624
0.24501842056721773
0.18165117182249585
0.13437990057280555
0.11288910313822767
0.10780427226662274
0.10724899078721321
0.10428099380357005
0.10196230452845388
0.10442560715803158
0.07824084146995824
0.05205607578188491
0.025871310093811578
-0.00031345559426175507
0.03682984893961332
0.03930493183895456
0.009953713475116206
0.00754864184180456
0.004210512000279149
0.0023905235704073905
0.0025514181141895157
0.0026600687371915177
0.0032528814500333153
0.0049653117713760984
0.006656669012883829
0.0082891363852484
0.010490868005769469
0.009064640697595529
0.0108201074292417
0.0175005303025061
0.02420494191575912
0.03219552361741538
0.046620312569969076
0.07676889374998708
0.13191107335725574
0.18358572088170727
0.20283098614422065
0.18759853506190838
0.14356408923907346
0.10851517404527596
0.10366079479483763
0.1315255722867248
0.17347927523798262
0.23334644173834357
0.2971287356978557
0.3069098805094716
0.2908774169023271
0.23157228183677595
0.14286290879005062
0.23323947167982115
0.3656466615640083
0.7146672981375223
0.7712079287521857
0.8014396244535091
0.753501825929354
0.4506956931932602
0.3641293978301663
0.17465275731556743
0.142348827763827
0.15515190039560334
0.18963765883651226
0.2345895495334025
0.28242153691142996
0.2983978402227395
0.28184855439514966
0.24125879800373448
0.18321718849652002
0.13664115218114145
0.1137863829668815
0.10730258233905693
0.10674464497647503
0.10484864419765304
0.10347472462105699
0.10606871493306455
0.07948099811359483
0.0528932812941251
0.026305564474655374
-0.0002821523448143515
0.03670402922828303
0.0393504364652768
0.010479205715521255
0.007834750481113746
0.00443109097645718
0.002492232574259304
0.0027124288676763147
0.002875093276510663
0.0033892446438630775
0.0051041305159029195
0.00667902234641795
0.008194506589822155
0.010737106945298891
0.00940939032979823
0.011156184454434571
0.018484852931496324
0.025772420713979526
0.03276112431785269
0.04585310913201696
0.07301918285175939
0.12640886257345046
0.18094546379014997
0.20345888295117384
0.19233442758321465
0.15014651345903982
0.11352159372485698
0.1065096051595598
0.13135765534062818
0.17118017172447006
0.23101249162925788
0.2946507202347543
0.304931988591805
0.2903901305070733
0.23202546821208092
0.1444936081446402
0.2583723238298928
0.3918265868002394
0.7581462941751155
0.7968341254548115
0.8156545384110588
0.7674890377727193
0.42285254599652466
0.3573728422148691
0.16784881204117055
0.14030731270219057
0.15896621536137498
0.20017049309613555
0.2511092952605512
0.3027306335955054
0.3157324806172085
0.2930791187497522
0.2454015147178085
0.18148195499676778
0.13415338414135686
0.11281102632664411
0.10786878119116726
0.1073093684157477
0.1042284534109443
0.10181081098771261
0.10425718596261313
0.07811284193360207
0.051968497904591016
0.025824153875579958
-0.00032019015343109913
0.03959963903711991
0.040737585397245944
0.00673412400268638
0.005810649272316741
0.002980251084172469
0.002142629782784883
0.0026044588203960163
0.002849014903938855
0.004292832572417286
0.0059040144378425564
0.00739213972464003
0.010046141197497934
0.009624026413900415
0.009165331234780525
0.01102686395214501
0.01200697007045975
0.017026269944693254
0.0335760446958514
0.05935963322955045
0.11402690400377234
0.1777968271601918
0.2040021950693613
0.1963978930143653
0.14800201844853192
0.09460495497694212
0.07370495479735793
0.08647231404462785
0.13717191112413835
0.19229240666895864
0.24906641256979514
0.3104567517675486
0.31414673200717813
0.2844731965158603
0.22030422440270492
0.1295839068592834
0.09559954918885723
0.1816528869309109
0.3287187704485752
0.5685109730221607
0.676544406252172
0.6627078132053974
0.5929620680225564
0.3894682627981255
0.23127374978019985
0.15865068885312253
0.13306847601355698
0.12863667088301503
0.1381026096208872
0.1599900661439046
0.186523465743488
0.20321224681900343
0.20723059510940844
0.1903034073434877
0.15806845462403907
0.12964230707221405
0.11181082833251937
0.10899097768070604
0.1141714883914692
0.11925635202823608
0.12011015906619497
0.08928900478816766
0.05846785051014035
0.027646696232113036
-0.0031744580459142774
0.03831302681342987
0.039822341332298755
0.00726253943460288
0.006078489848244276
0.0031029945918774025
0.0019728825855653193
0.002210046575131038
0.0023057712207117075
0.0034742486297987766
0.005143647263397851
0.00701680352017253
0.00939111697994265
0.009658246329996605
0.008617887659034582
0.010441209619593057
0.013104007519569659
0.01782136077128414
0.031914011775020276
0.054307775425648
0.10193435696122796
0.16454289055710877
0.19843615866686476
0.1987341726051382
0.15963610410414397
0.10777205363758896
0.08249954776561444
0.09009203643878766
0.13466062377241725
0.18676971096689624
0.2450883941481303
0.3078345447162622
0.3137130098559148
0.2883328103946357
0.22493203555894614
0.13310863849582674
0.1255101894578986
0.2300585154730622
0.4300859472808547
0.6191512918308232
0.7108841625314422
0.6811334655704686
0.5653582183202012
0.3870106767609059
0.21435580809612612
0.1539282302612846
0.13826600051665217
0.14292276264733073
0.16070558340466792
0.18909104217263958
0.21454926965359156
0.22411134641492414
0.2171712123658463
0.18945728057191075
0.15184329493003015
0.12385496393512613
0.1089684977271235
0.10708766588853608
0.11066641326784288
0.11427820002347934
0.11619512038509207
0.08672677602548504
0.057258431665878004
0.027790087306270972
-0.0016782570533360602
0.03858733475907472
0.03999866438780888
0.007072927606310349
0.005979575443502841
0.0030412696937574535
0.001985394294215189
0.0022925583496625455
0.0024202663977515465
0.003657158085396161
0.005315783232056721
0.007102791947590482
0.009548965659079256
0.009629350923208201
0.008725499950846743
0.010557942903131988
0.012785267396529468
0.017503643101505015
0.03222058631586765
0.055475509879146234
0.10492603140584256
0.1679605730127226
0.19990463267798744
0.19818923670950872
0.15663794218820182
0.10427629145137067
0.08010161001663503
0.08901405338321591
0.13522989022503346
0.18817737235362422
0.2461546866619992
0.30860752819414994
0.31396276406189366
0.28751323159724707
0.22384937563276466
0.13215996877270544
0.11718560311186674
0.21724490175035807
0.40253456993272424
0.6052066150225702
0.7017996941895169
0.6757206104707904
0.5732261968714852
0.38798751891824984
0.218634243067847
0.15513531758826438
0.1368631398255284
0.13905574965180742
0.15458064209150896
0.18122022632258294
0.20707840050831325
0.2186351392647048
0.21463344613009427
0.18976257305008704
0.15344745849411348
0.1252569787493501
0.1095822491221108
0.10747560733163684
0.11149916496702689
0.11552347974898468
0.1172136417151388
0.08740934395554184
0.05760504619594488
0.027800748436347916
-0.002003549323249046
0.037266550051271836
0.03932870641575126
0.008719421570873666
0.006877004188221419
0.003694748189810646
0.0021641155266981923
0.002213015259447677
0.002243459145713886
0.003060490399378895
0.004762902151477882
0.0067027001470553165
0.008655133570076131
0.010020359440319518
0.008517331170271607
0.010297591197116854
0.015327198551202936
0.02084088869993466
0.03144898583689223
0.04918901801152153
0.08670110385926288
0.14563126005525875
0.18999298402895626
0.2012632259223586
0.17593549413320253
0.12796302803190265
0.09690196685550685
0.09729402682765263
0.1323757275194869
0.17908222966582005
0.23866062209398733
0.30238939986708574
0.3107428865665706
0.29092671332031794
0.2295887415684853
0.13870738614545353
0.18073240434853305
0.305331145625987
0.5950706980836427
0.7053080324530616
0.7636191941514151
0.7195994545627478
0.5093630549920208
0.3769797480905642
0.19128067400363127
0.1472756026498872
0.1471025861333569
0.1673638910483093
0.19943569041862103
0.23845761279346742
0.25986524777008413
0.2560802877083622
0.23109423902467738
0.18662119856290935
0.14298413271150862
0.11723320439854233
0.10703969021968558
0.1061491899084394
0.10684581684615826
0.10780041412952354
0.11042946076506577
0.08269192677810928
0.0549543927911528
0.027216858804196317
-0.0005206751827601663
0.038293622850149665
0.0398103838341471
0.007278345987415898
0.006086931581398537
0.003108626252102524
0.001972931716803417
0.0022045181769079643
0.002298035800545451
0.0034614046618582357
0.005131531761461574
0.007010628887285375
0.009379482188464265
0.0096609323052113
0.00861070732318364
0.010433358137583355
0.013129049315203393
0.017848396842219606
0.03189397598145839
0.054222921637872755
0.10171143798727085
0.16428440410070955
0.19832427193207283
0.1987739996612038
0.15986231313715826
0.10803862442253433
0.08268383649328039
0.09017684179465352
0.13461966043757032
0.18666360836269852
0.24500660423969242
0.307773431559697
0.31369041458212227
0.2883901520975219
0.22501085525967046
0.13318143419319936
0.12615828777164115
0.23103703681098506
0.43220696314266127
0.6202301373818627
0.7115781066416254
0.6815626175280908
0.5647395622742936
0.3869268714827617
0.21403413315457334
0.15383712962995627
0.1383741125815364
0.1432210246246166
0.1611781361089121
0.18969772705183946
0.21512200714490878
0.22452851937719162
0.21736264458156712
0.18943170119691366
0.1517219849402931
0.12375143607813072
0.10892537349593659
0.1070611200868464
0.11060531450828064
0.1141850259017834
0.11611782122702255
0.0866745584512541
0.057231295675485655
0.027788032899717208
-0.0016552298760512396
0.03725563365993462
0.03932599692220621
0.008743314249889306
0.0068900422000264866
0.0037047122428224243
0.002168275339500082
0.0022184823981353406
0.002249533908996258
0.0030617505936483824
0.004764439920285456
0.00670028994437805
0.008646193817561027
0.010028059070435053
0.008523264665132277
0.010302975674962684
0.015366482225714444
0.020900028558088625
0.031455515310237894
0.04912838266918206
0.08649223806002466
0.14535429003837116
0.18986588715596928
0.20129602778346115
0.17617104079176313
0.1282690012508933
0.09712609218897063
0.09741312012800735
0.13235225884434257
0.17897000038240282
0.2385593552341251
0.30229473596906864
0.3106798153433892
0.29094159612870746
0.22964043090446035
0.13879170300179716
0.18167355791952472
0.30649382215256665
0.5975596206283258
0.7066439295861004
0.7644050144925516
0.7202549183790485
0.5083508831223765
0.37677050213189045
0.19094652438599535
0.14717760111360192
0.14724872205650966
0.16776854474159114
0.2000762140130951
0.23926676877558176
0.26058843711529
0.25657493099765033
0.2312980868567349
0.18656441474293947
0.1428549395706851
0.1171512841839618
0.1070303681354491
0.10615040763569654
0.10679920313826642
0.10771025640414975
0.11034315787255221
0.0826295926543784
0.05491602743620459
0.027202462218030785
-0.0005111030001430233
0.04084551820389394
0.04176963018957048
0.006685216997324744
0.005757354135214345
0.003023923318744471
0.002378667796095936
0.002958069133666236
0.0033291679450555512
0.0049697800744740485
0.006506820363665212
0.0076940452567519635
0.010540453068317171
0.009739709274698796
0.009726213055796636
0.011617463324025735
0.011553356594999996
0.01719906686769065
0.03542971709401511
0.06351199152837929
0.12266196505745558
0.18643289426067416
0.2074014795940698
0.19448321300007634
0.14071336813819338
0.08694878185512217
0.06909415404638206
0.08532207605134132
0.13928660750307428
0.19601510828970148
0.25142368062471604
0.31158127590533935
0.3135770809351386
0.2808508961939234
0.21664597679022776
0.12751368587144513
0.07929159504702385
0.15203419430257717
0.27083821578512374
0.5404990060170928
0.6551786462357186
0.6539685411006735
0.6072611431240866
0.38917974172888326
0.24291885281699352
0.16182165141194943
0.12997327700342415
0.12020689104288262
0.12481167806945691
0.1428288226916026
0.16942074423601822
0.18993032751236
0.2005355423581041
0.19036304295557172
0.1621407916034219
0.1339501839139472
0.11437173361784163
0.11085493472859116
0.11690104199058846
0.12274274423667061
0.12261334002988838
0.0908254452035324
0.05903755037717642
0.027249655550820442
-0.004538239275535538
0.037261826712984406
0.03932752439721872
0.00872972718039143
0.006882628227854297
0.003699045893461163
0.002165908336957674
0.002215364227146282
0.0022460648700225114
0.0030610170882827293
0.004763549110862122
0.00670165220366315
0.008651268410460542
0.010023673755345438
0.008519863685970233
0.01029988651676171
0.015344126496311582
0.02086636211629591
0.03145176079124604
0.0491628048699248
0.08661092073670744
0.14551173012693625
0.18993814496770575
0.20127739163538716
0.1760371537859741
0.12809503535131278
0.09699864328614868
0.0973453769012092
0.13236556624818216
0.1790337973989331
0.2386169466085904
0.3023486013425209
0.3107157371720026
0.2909332159041356
0.22961110696064294
0.13874377247303696
0.1811380383435295
0.3058326733244548
0.596144902112695
0.7058844522088358
0.7639583603387343
0.7198820887451438
0.5089270411360287
0.37688968189990496
0.1911364654738729
0.1472333136984294
0.14716558213203007
0.16753832849770667
0.19971181220483702
0.23880646340218545
0.2601771055013977
0.25629364539562804
0.23118220837802544
0.18659674992731837
0.14292837412225243
0.11719779343410014
0.10703559725305557