# vtk DataFile Version 3.0
vtk output
ASCII
DATASET POLYDATA
POINTS 5568 float
9.147556903921647 0.2709676486517234 -23.43304773698057
8.112729297188599 0.27584146684032085 -21.74981234344017
7.602442785441808 0.29104796634884356 -20.982641491215475
7.096753592186845 0.2984598128225766 -20.21375094801063
6.582360697073392 0.30341114251822876 -19.452148092775793
6.062805550583344 0.3105401284649561 -18.69298412943666
5.542166109715641 0.31669646896034215 -17.93345764081868
5.020210110952395 0.3201277816573973 -17.174716272277404
4.498559778746771 0.32106277605671496 -16.416690882207668
3.977832211900153 0.3229711910177992 -15.65975094664909
3.4575820342817334 0.32551830602475273 -14.9033465763486
2.938141970034674 0.32941100804444606 -14.145707370281636
2.4190935821614103 0.3400637312550772 -13.38610147148813
1.9012600635211263 0.35803411559356024 -12.624296091877286
1.384547757270727 0.3842743473668579 -11.860450381998954
0.8687270118893241 0.421045047748982 -11.096781576671605
0.3561614100489332 0.4649176659186703 -10.332844278412498
-0.15810631850687573 0.5113479019540083 -9.570033798695814
-0.6828784092235659 0.5650781707888604 -8.812309092826398
-1.220306101149728 0.6235952707100658 -8.0630418010775
-1.7646190280759324 0.6695190442232426 -7.324368683187155
-2.270035042478983 0.6638888944050749 -6.60751087195568
-2.7157594179832847 0.6140450519631583 -5.874880280448493
-3.0428907743318163 0.5048405514445573 -5.108567568380099
-3.2038635684967374 0.32234943276512834 -4.322351497710034
-3.2256682769352443 0.09469976266866767 -3.5296379133119906
-3.1656806162761932 -0.13860804492508458 -2.7379956921083353
-3.0630715419051597 -0.3578427580419414 -1.945379123164559
-2.945402835092243 -0.5293979923502862 -1.1358764149767029
-2.827183057055295 -0.6223949076035029 -0.33398586601982916
-2.7199939786944336 -0.629772167274218 0.4511574249125945
-2.637108660067386 -0.5152935527699828 1.1906140573656132
-2.5737954728740906 -0.2872939478919301 1.8439236793823461
-2.518372874476516 0.03175845984900261 2.3866147912714144
-2.4769499662063694 0.4270057059838012 2.8212396112328473
-2.4376454657031363 0.89755893892898 3.209005525442235
-2.3988239711617756 1.4454607763364367 3.571359525170861
-2.357124746708547 2.0778119733215004 3.9476095473787187
-2.349931322307254 2.744113442566429 4.3834211275463995
-2.456388010599058 3.2504397349472995 4.847351561459447
-2.6491550589497934 3.5238213691431963 5.303438523231308
-2.848476104027634 3.5815152222565536 5.69720879625896
-3.0321235786539824 3.451255161477908 6.084803054484838
-3.1754567568166645 3.0849252539036933 6.407124351323516
-3.2708427433084233 2.4927367332489285 6.691580181726636
-3.2858243175686397 1.7495468400821759 6.921304855932841
-3.204550813121043 0.9092675930051224 7.092409502270188
-3.0334163501297233 0.056434793109676584 7.210360653205186
-2.7783853908511347 -0.7571789919509211 7.310882072084334
-2.435258829585624 -1.500724312919336 7.416148278161391
-2.0089836494830795 -2.152803684326001 7.537705112323224
-1.4995895845636418 -2.7062154907573595 7.691690163206041
-0.9148919898013699 -3.1346661181538833 7.897781711882912
-0.2697069749483779 -3.430097887628434 8.16733819076484
0.41735249036100486 -3.6063217558607445 8.494719080602582
1.1515929316781603 -3.6704231142435324 8.87322661810679
1.9147443423943087 -3.638260896256774 9.285052267837578
2.7045816123566526 -3.521810752806776 9.70263455157275
3.5077021848012206 -3.3312842074822253 10.09136794469297
4.320534760408231 -3.0705988587002735 10.430690568269124
5.156825156334986 -2.7330992600326898 10.707549000444002
6.050507766644261 -2.2917798419465534 10.91233546428388
6.982676921723046 -1.734352378433808 11.010300613621967
7.856681630359462 -1.1048284769232044 10.99096818364378
9.06889667617565 -0.3608830606903392 -22.917620560069263
8.677405213040176 -0.3148426586242188 -21.967048176411296
8.178936285701903 -0.25963024807566026 -21.18736289809633
7.6668983188982995 -0.20831178144915496 -20.41321828679895
7.1385544787824085 -0.15816750767759355 -19.646982571668474
6.604823726870347 -0.10887655352854538 -18.883949576964763
6.072722265398667 -0.0594606431826969 -18.117757747380377
5.544276751256707 -0.009463499864974766 -17.346756198355404
5.022137672708961 0.04032154452209599 -16.57071129148759
4.50534826078945 0.08998296613880125 -15.793626287688966
3.9928743599970593 0.14059428059795942 -15.01818556133517
3.4839554982120133 0.19182166282812657 -14.242994389652068
2.9825665871658757 0.24397500503193303 -13.465618262962158
2.4917209715635407 0.2969001899564637 -12.683671705366448
2.00993586271785 0.35151477752094606 -11.89580273685156
1.5432679833816119 0.40836066488672096 -11.103371179164384
1.0940833796552265 0.46705179671771413 -10.308798784293067
0.6493470853664374 0.5287482391425519 -9.513960550886894
0.19201355184678148 0.5995605873373144 -8.72193594297216
-0.30608305400826025 0.6836524628866261 -7.941426015750476
-0.8612901641812143 0.7735087723142312 -7.188347459510249
-1.4734268652347264 0.8486218589323202 -6.468964598236784
-2.0449180211654157 0.8510028670073183 -5.742199439407845
-2.494346722823664 0.7259221901715014 -5.000412294992725
-2.774896151138279 0.4846638132856437 -4.271508343857058
-2.934211402214454 0.17332546576404229 -3.5144990701280157
-3.0160162994354276 -0.16832990791925412 -2.7458544411393153
-3.0630024830548166 -0.49843958594735177 -1.9531558245698544
-3.098236717356005 -0.7854243621467332 -1.1442720119553398
-3.1416624468843004 -1.0397502239031877 -0.30213883329773594
-3.2029605455326124 -1.197219796673535 0.5602178955708172
-3.285319679482423 -1.2046751063033112 1.4068075769885369
-3.3774237166797456 -1.0466552391012907 2.211029557038338
-3.474650431124913 -0.7184795343902497 2.895763401201393
-3.5511143097162896 -0.24473747632301912 3.393159050062155
-3.618170992699101 0.35576395879138956 3.774588049460812
-3.6497916149613183 1.0630212599550144 4.049115638821021
-3.6379115880785795 1.8236551624632382 4.248778324008265
-3.5666809964257014 2.6080826268588067 4.39899360183096
-3.4803670656150616 3.3533062286727002 4.614637851183526
-3.392889538976257 3.9815858115690874 5.002139818442233
-3.4198399606955645 4.24065927823947 5.451896507491856
-3.433332106441258 4.282848442280427 5.961758452298926
-3.5302530915886 3.883172285702432 6.342364645310278
-3.614501983187317 3.2305467443190947 6.620850879473905
-3.6494505566355095 2.4292308624534638 6.821863934842198
-3.619251251710767 1.5694378930210457 6.9605198054803195
-3.5045042379805236 0.6931169765376544 7.076187218012421
-3.2814556018859014 -0.15209654909081327 7.19445263229206
-2.9560096602897623 -0.9238857246217876 7.348554338898664
-2.5414314456684535 -1.6068392595516232 7.541560545045558
-2.046638620316716 -2.1864036249040506 7.778299508768856
-1.4817913775938178 -2.6476286192939718 8.081436414633513
-0.8674418806672134 -2.9857908703716376 8.457050565498516
-0.21606344774970365 -3.2196776182431033 8.898686246634039
0.47220117377036885 -3.37287166836962 9.384492703476738
1.2155524073898887 -3.445005876584116 9.889832975470554
2.0074016245637996 -3.438639368213174 10.371679487864881
2.8379055225046748 -3.347737615746761 10.793792739858269
3.704409844939773 -3.1700963856495474 11.133534669778985
4.602643650890008 -2.902819861347474 11.383598972150708
5.564780983081543 -2.532613006375713 11.555408717590682
6.557869826881727 -2.0561515621770976 11.65134482872034
7.478369213988183 -1.5296138279067015 11.68393391287068
9.133584957328134 0.15873577977756834 -23.341495485035612
8.234491279204605 0.17329399592214215 -21.80574888701546
7.7263792465226855 0.19558545297951063 -21.03648262842065
7.219648046336024 0.21076165762179316 -20.26678578395693
6.702880171764766 0.22369176670515908 -19.504495666532776
6.18089958207033 0.238265992137183 -18.744762561617254
5.658315666893515 0.2520590285624132 -17.98417480317074
5.135304624375117 0.263704345438748 -17.223401117853154
4.613670565063635 0.27325119347833476 -16.462347824184025
4.093741175505078 0.2835803323257597 -15.702006097674944
3.574975204493944 0.2946139103899388 -14.942401884293172
3.0575069961336787 0.3068739403864792 -14.181822844217473
2.5416877262589774 0.32487350370080437 -13.419219430246901
2.028743534416049 0.34903834316050836 -12.653995579561412
1.5183414915780795 0.3803058976327962 -11.886058160418635
1.0114138115862734 0.4206312262553455 -11.117519164262923
0.5103601910451314 0.46712290433331977 -10.34846527672268
0.008749170512388549 0.516249329580197 -9.580343659830774
-0.5037491392077816 0.5729927166669403 -8.816902339795522
-1.0340672392531207 0.636024075850755 -8.062300937666972
-1.5802234654719376 0.6896710993989414 -7.321192967440417
-2.1035035437124003 0.697925257183012 -6.60458216130305
-2.5703629060911832 0.657127579591438 -5.873802582369425
-2.9183589428644776 0.5453077070707876 -5.112835884515558
-3.100215871388123 0.3527881777801379 -4.338594746815981
-3.1462055883131925 0.11103864789990475 -3.554466330457208
-3.111303670099474 -0.1404997005226455 -2.7695206808798787
-3.0351284975924107 -0.37830734065618876 -1.9796250245896916
-2.9446497994713403 -0.569427737632422 -1.1732186264039424
-2.854698339772836 -0.6895905085582954 -0.36841629468379977
-2.7765770806534524 -0.7223493742841547 0.42588996163726245
-2.7218566896210707 -0.6289042367588872 1.17987910771661
-2.68439414905734 -0.41327145759550354 1.8556850210234317
-2.654098880034514 -0.09361882474586236 2.4200955818549708
-2.6323083590092757 0.31401246404111577 2.8644307402762306
-2.6107578707693064 0.8051205321380126 3.250294292544076
-2.5838239138403027 1.3776787643628303 3.596722895125338
-2.54749289782982 2.0284221105891125 3.9404337164956336
-2.529170784182936 2.7077533775775877 4.321240211249251
-2.6014800352639242 3.2433200838136407 4.7344926921091846
-2.7451382457705913 3.5625670238758733 5.165661283055153
-2.9120102154279968 3.651809718044948 5.559932918512031
-3.0635178631694453 3.552851360169578 5.9587969865069805
-3.1988346676163406 3.181094869718648 6.2908288785624435
[...]
CELL_DATA 87
SCALARS quad_param_group int 1
LOOKUP_TABLE default
3
1
1
1
2
2
1
3
3
3
3
0
0
2
2
2
0
1
0
3
1
3
1
0
3
0
3
1
1
0
3
1
2
3
1
2
2
0
0
0
0
0
1
1
1
2
2
1
3
3
2
2
1
1
3
3
3
0
3
1
3
2
2
2
3
3
3
1
0
2
3
3
0
0
1
3
3
2
2
2
2
2
0
0
0
1
3
SCALARS single_component_feature float 1
LOOKUP_TABLE default
-0.023862832256065957
0.07449004538969686
-0.0063929978408618846
-0.058814974391608814
0.03947591201898007
0.04734812599677652
0.03414109238975593
-0.08218614404297384
-0.06493552418279266
0.04209711234341241
0.018847846142488002
0.1446725312223842
0.15527469006760447
-0.025446109244369665
0.07798248028640373
-0.06610091464051006
-0.005904786884185907
-0.029809470401263447
-0.008946599264754595
0.0009563428597118544
0.023488016552661483
0.014778452198948237
0.014008476272717958
0.03319065325107849
-0.04240583084611376
0.03481373102463654
-0.12119512099040432
-0.04665264665483259
0.028718021017061363
-0.06182210165454628
-0.020529700621363126
-0.026413816514696514
-0.040753821300885944
-0.02274036410672935
-0.051164941846093145
0.05246088918220883
0.033088642309417084
-0.007685036746545866
0.01590835434300503
0.01610194921042055
-0.09968633704610944
-0.024317559755462875
-0.012471485403857577
0.02992788507465414
0.03922464569688805
0.0460239432382859
-0.050622851243680905
0.003535416045063404
-0.06363766753942356
-0.0053656148295945436
0.01944408504145068
0.0021685013941451356
-0.024868197432132116
-0.06506922505485375
-0.03380984020963405
-0.025175299661800783
0.00041570794897661644
-0.007153382062990066
0.010282146282460134
0.08158180279922644
0.08270894548887497
0.08171960816659851
0.02075504016316872
0.10476482394492634
-0.03279799485832205
-0.01305497145551416
0.04025887795583601
-0.02210951923455013
-0.10739284434530261
0.012497244794978782
-0.06178968708083138
0.026692217872649207
0.020430477976882216
-0.02133584124995043
-0.005552417955647832
-0.004981272338344809
0.04341596355541963
-0.060336443567541184
0.04001811653057785
0.022110744342611788
-0.059302847463774025
0.026711639671247855
0.013340986701912382
0.06262640491309937
-0.04564314666655104
-0.036867271704139476
-0.035393137087697236
POINT_DATA 5568
SCALARS single_curvature float 1
LOOKUP_TABLE default
0.028436683429025778
0.03021963473219461
0.008254884435244064
0.006478639474275821
0.003796858197343782
0.0023047247566800313
0.00214368819175852
0.001790116690648477
0.003087819492634812
0.005042874933975071
0.007345452836536474
0.00988337578854273
0.010121601438964985
0.008837482113491823
0.010327134773436834
0.011888171068640598
0.014679705965624101
0.031663768083236024
0.05286480692302906
0.09631070967786491
0.1576388490919551
0.19209631041220032
0.19654055054561992
0.16554715839970877
0.11774491619160389
0.0935140251266073
0.09782194238713593
0.137910757278694
0.18853719956476503
0.24122771966996587
0.29617737954177126
0.2956048415756082
0.26452624694862115
0.19844202374169648
0.1255302907456614
0.16221199906130637
0.2985525634571009
0.5067159558843308
0.6460229708384655
0.7094528177242122
0.658854668421938
0.5216960683299467
0.3707992145006146
0.2081376907104901
0.15563647321160481
0.1434780067739582
0.15276278115920375
0.17509696312961345
0.21033535859933658
0.2371553612519561
0.24312341705748583
0.23099732469733264
0.19631869878824781
0.1540152167050678
0.12323826012585523
0.10545336909367788
0.10096623684048399
0.10337192512897954
0.10890486370128111
0.11560398200413115
0.0885736451841103
0.06154330836408946
0.03451297154406861
0.007482634724047768
0.06256459361675701
0.06437182679640403
0.012202611418320075
0.009524684502003854
0.006650340913551673
0.006275740135178537
0.0062214001644072345
0.005428233053612092
0.00534306761985514
0.007233658589020606
0.009585970700011298
0.013312060908133746
0.01601278497712825
0.014208964960360929
0.015506403427582435
0.023170816758633413
0.03591175545061001
0.05301518246551376
0.0722322357282809
0.11632116652852126
0.17313286859425786
0.20365663548044274
0.20857112326460167
0.1671865285257405
0.10873755142699693
0.07209909742391117
0.07568684715657974
0.11387623352473479
0.15969039910827043
0.23103637637005758
0.31478973570938246
0.34076945074725323
0.3402159233018517
0.29642896795534285
0.20985856694997254
0.16119215856513672
0.19198539580029705
0.46146182973377475
0.5916114724410738
0.7478216014062242
0.7487910156235379
0.5862346569550954
0.45558898060687014
0.19720267838956385
0.1389554288473771
0.13821293626803732
0.15472888378064253
0.18091147089483797
0.20493427553571053
0.21888433560414924
0.2167694868464004
0.19467484680940172
0.16123798311824
0.12907148727685347
0.11452756374291316
0.11795316431305623
0.12496669681713231
0.1257273646888235
0.11840105962581557
0.10661407927861442
0.07314640671004623
0.03967873414147803
0.0062110615729098345
-0.027256610995658362
0.03533443197613591
0.037088663116966895
0.007853703385556604
0.006357674170874553
0.0033482614048351957
0.0019702270479781247
0.002002984229194334
0.0019678445391591946
0.0030868323169640005
0.004843273690577453
0.006909196687605372
0.009154501738817274
0.00973103789935315
0.008434475436318147
0.010177402164101382
0.013350580853826335
0.017615509266179354
0.031138981190353947
0.05169619034025272
0.0949592418406577
0.15637838117494443
0.1940823779271413
0.19902841002931107
0.16649303507948246
0.11679049395159043
0.08989930312504715
0.094335656893734
0.13479763489473567
0.18494714772694515
0.2423543330098716
0.30350288291559196
0.30856455741630856
0.2834682386078759
0.21968062166643093
0.13303508304052358
0.15194308957649927
0.27317912820679124
0.5032134328130131
0.6543504134910952
0.7281008916478764
0.6869854392483802
0.5383701065717527
0.37965602717298313
0.20520598153515474
0.15224314762159474
0.14226432091720584
0.15278088487050537
0.1760423968757345
0.2095097234662061
0.23437792850120528
0.23913437976857924
0.22538539428775767
0.1906321271024906
0.14962036809688034
0.12138744737448884
0.10713844957783474
0.10493171598183751
0.10737559229130372
0.11072904458519
0.11424996233680665
0.08599715803537067
0.05774435373393469
0.02949154943249871
0.0012387451310627295
0.014205976676459817
0.01608808362748016
0.009793031495203958
0.007090536212021885
0.005623809591788017
0.004356630377643905
0.003915470284112128
0.00277855552320519
0.0040510442832930645
0.006276404377794527
0.00910895643018856
0.012714078829528037
0.012755670042645741
0.011303589717295054
0.011989193844754536
0.00980672730772614
0.013022037284799629
0.03944493275156671
0.06232575038595416
0.10676026712514937
0.16366902733723607
0.18854596025613052
0.19141667762838369
0.1627976440120517
0.11867662833839097
0.09984446818112276
0.10357957543538539
0.14194974461073076
0.1928439226460245
0.23462616729810815
0.2759289831342906
0.2632623754963525
0.2217236896173446
0.15714576299206648
0.10974358215963465
0.17239507865403195
0.31634210766354987
0.48330478866227183
0.598487712344546
0.6540532011907761
0.5958795617586791
0.4868670696310854
0.3636115621267529
0.21559915334292862
0.16291642226091
0.14629231901351933
0.15324182761335395
0.17343998966660817
0.21183241882982717
0.24196737112344213
0.2499588101524363
0.24076710241150254
0.20655877813960075
0.16245397288937624
0.1273004354917337
0.10302488073855383
0.09380481371537482
0.09565523808842794
0.10520901811668996
0.11790058578958731
0.09338629176225496
0.06887199773492261
0.04435770370759026
0.019843409680257912
0.052040885409223095
0.053788863147210236
0.009522592978236072
0.007751216630885336
0.00470758747919751
0.003911042480216091
0.00397222901380005
0.003773384874649322
0.0040667924192662845
0.005658829341516108
0.0076192972666385425
0.010254938186307296
0.012070350570995902
0.010555987588947496
0.012328107086599956
0.01852380943615656
0.02764444510089317
0.039966500118171926
0.05946109801507758
0.10296714207192267
0.16228371330542404
0.199600757042821
0.20497218866443231
0.16762444823310782
0.11288436018459541
0.07977450886628622
0.08399993693586885
0.12391426260238536
0.17194183441018399
0.23889912520914242
0.3141046389023746
0.3321271050083103
0.32204086272238247
0.2688013158303318
0.17178128605780182
0.14303072973058065
0.20944803842544293
0.47993505237713585
0.6344768815996694
0.7500979767980199
0.7357462921366404
0.5704654126487758
0.41640255994651043
0.19965633065079608
0.1441881070544564
0.13965346496517483
0.15354158404911766
0.178751799501571
0.20707303971443616
0.22606211539863916
0.2271261819931845
0.20875433072555366
0.17439419740503037
0.13789484742501862
0.11714809468562465
0.11277113607385406
0.11611057775192207
0.11793479224496696
0.1152748524964309
0.1101394853652355
0.07882778239382394
0.047516079422412386
0.016204376451000826
-0.015107326520410733
0.05462418413187697
0.05638092308990527
0.010082373142373563
0.00813543298552098
0.005125415049975068
0.004427973971730169
0.004464568678231654
0.004139661096344434
0.004324655971221324
0.005960782269066159
0.007982225768990901
0.01082500457315944
0.01284994218142127
0.01127937557451665
0.012972713938046573
0.019540049293605685
0.029490226583456274
0.04268720723576311
0.062083696402372754
0.1057028639393834
0.1645038323730481
0.20054393780476643
0.20586656931285743
0.16762345365671816
0.1120309087127242
0.07802138052525535
0.08213498761477059
0.12174961326881546
0.16931393487424592
0.23747542213550268
0.3147662422788345
0.33472543251159687
0.3269557676496885
0.2758255949619796
0.1812168569436685
0.1462460027523663
0.2037462635263379
0.47647336588335426
0.6264552420802892
0.750746191243679
0.7402371083561871
0.5743631916778121
0.4244620815238979
0.1989811937288551
0.14293893034423522
0.13928761470860235
0.15376606337292958
0.17923547119603675
0.20661371742571108
0.22450386031911396
0.22487449319559252
0.20567332418021114
0.17147261269893946
0.13589025307647
0.11651288879459012
0.1138821722883386
0.11809416446970152
0.1197180372652066
0.11600695484502871
0.10936828061796999
0.07755715550084397
0.04574603038371794
0.013934905266591913
-0.017876219850534114
0.05022668091467799
0.05197030945749605
0.009167799813577696
0.007500024164173277
0.004436239613484172
0.0035713430862158576
0.003648075263512449
0.003528833974291802
0.003904275805142412
0.005476463966546256
0.007407001696912505
0.009919924869884161
0.011590001607304336
0.010110547076432582
0.01192427644648202
0.01784935279333725
0.026403327299438374
0.03825737063961988
0.05783151630897421
0.10126970443096482
0.16091730164302842
0.19895610707153788
0.20434140888259336
0.16759279822254397
0.11343440007941272
0.08096651854868306
0.0852559800679221
0.12534140520409776
0.17366907024666192
0.2397372917295727
0.3134752728449157
0.3301364700668886
0.31842761536857667
0.26378248901607904
0.1651598725840867
0.14113375666967992
0.21386457496376077
0.482027302958748
0.6392798266921229
0.7492081190377685
0.7320959461165107
0.5676138687038136
0.4112131286752411
0.2001570314039009
0.14505771340187154
0.1399150665455346
0.15340422912836318
0.17842583596038253
0.20737730933745144
0.2270980305497914
0.22862352382101808
0.2108093896246543
0.1763569568079467
0.13925762992768975
0.11759396296549135
0.11203917594091518
0.11477287183918447
0.11671850818239317
0.1147697613195857
0.11065287718167098
0.07968419132524206
0.04871550546881313
0.01774681961238421
-0.013221866244044714
0.0180211243176164
0.019997020444904822
0.01104249141306702
0.007609726226337451
0.007081266019596864
0.00604644741099748
0.005489074542275199
0.0038178111651607912
0.005012457418797926
0.0074744662077754305
0.010704253145503264
0.015190474124784784
0.015353066546624461
0.013671538272313795
0.013684872075146121
0.008807060791632121
0.014365023827469093
0.04809941543029313
0.07236333594870112
0.11797820550284775
0.16944939736143677
0.18656277517216108
0.18798158827221617
0.16032769538764335
0.11854403184176913
0.10313919149358466
0.1063055678749619
0.14286349444361926
0.1933857434540174
0.22708784048217745
0.25864053507134843
0.2377737578101489
0.19253411262820583
0.13414746082693868
0.10167909546634026
0.17344384417267852
0.306028798276549
0.4487363942152306
0.5478649292933122
0.6098623724409189
0.5579466423739575
0.46900288139588114
0.36874870603373766
0.221916815183262
0.1681251752090144
0.14848085331867433
0.15398462747116914
0.1725598883237615
0.21272750072307423
0.2445814047914187
0.253591781452947
0.2460946535294209
0.21240585768402725
0.1676880321322552
0.13025298335952604
0.10220195954152879
0.08975941525922916
0.09089726662111867
0.10279186167173233
0.11910980653570044
0.09631336072670738
0.07351691491771431
0.050720469108721244
0.02792402329972818
0.012805947465237461
0.014710696870367695
0.010108699634235238
0.007219894592531173
0.005995717311253727
0.004788679888560833
0.004315258238860653
0.003037765518590628
0.00429035676753734
0.006571440847394929
0.009503092856631243
0.013331762376671915
0.013392352599158473
0.01188744313954759
0.012404401060027038
0.00952474680426689
0.013271350904838476
0.04155440596499603
0.06477904575007631
0.10948116190995869
0.16507057069553072
0.18799452030643612
0.19051444172387305
0.16219919204331462
0.11870099679383572
0.10078998006802316
0.10438797836303833
0.14233111227697295
0.1931711430126876
0.23288258096975112
0.27165995473989585
0.256821965667671
0.21394651120803101
0.15064916799176292
0.10734360897276453
0.17299872012301473
0.3150844591948237
0.47539743921079225
0.5863683842047083
0.6426096136791939
0.5852122882341738
0.48147267745177574
0.3640809655637384
0.21714513166999047
0.16425506122523356
0.1468408098134056
0.15340200897795256
0.17318964922164223
0.21207465717789176
0.24270058553806687
0.2509860302310504
0.24225999318865368
0.2081732890008249
0.16386244182537194
0.12805692905574084
0.1027432375294818
0.09268074469658633
0.09436979976701024
0.10456746821605856
0.11824307413088483
0.0941766728081907
0.07011027148549656
0.046043870162802425
0.02197746884010829
0.05291393110113858
0.054664518578071745
0.0097047509488946
0.007877620938411527
0.004844735583523442
0.004081434993128319
0.0041346097757988505
0.0038947225012014005
0.004150366318121175
0.005755228034328408
0.007733870704869283
0.010435261713956949
0.01232112334919074
0.010788666342907444
0.012536751512977326
0.018859635272836597
0.028257404134840347
0.040849126323577484
0.06030855050941122
0.10385065390497959
0.16299898972690763
0.19991606513713794
0.2052749484338627
0.1676304245779603
0.11260563349541289
0.07918977971626133
0.08338022406238703
0.12320090572141452
0.17107683371586713
0.2384493247316293
0.3143597868969097
0.33303666225152817
0.32373230045990964
0.2711912521153908
0.1749701781846841
0.14404386416614307
0.20743666343482647
0.4788294223313786
0.631925000526549
0.7503993835475018
0.7373571898728645
0.5718009399062892
0.41903377526972346
0.19942319976572032
0.14376762950598868
0.13952897369247902
0.153613474479062
0.17891254096158926
0.20692147243283812
0.22554711978755118
0.22638189795246944
0.20773468134953954
0.17342454606424212
0.13722643191145764
0.11693358678058775
0.11313710102372161
0.11676993516240328
0.11853018734932737
0.11552040041891293
0.109884426851033
0.07840552800964506
0.04692662916825713
0.015447730326869191
-0.016031168514518745
0.04479145554657665
0.04652992081325771
0.008320424634112332
0.006855270478455135
0.0037530715202674894
0.002688608962410096
0.0027988710333722465
0.0028552032733624414
0.003501292415666536
0.0050699092431136066
0.006973043371242565
0.009232849540498722
0.010476542091530169
0.009083398803376276
0.010955536292442345
0.01600102526639763
0.022916307498022113
0.034214088410429
0.05407815356584086
0.09737067060467497
0.15786890315567959
0.19709898585162958
0.20243426518119115
0.16735676022824986
0.11487734412772367
0.0843820091405097
0.0887991974240318
0.1292238896148867
0.17834152600727948
0.24153403493460543
0.3108207620712351
0.3233627465855179
0.30679009840952765
0.24829556007010725
0.14545742706107437
0.13674075658677848
0.22843851603234877
0.48663136885861835
0.6498096723878226
0.744433519906957
0.7187203103983762
0.5582590258436394
0.39762044940675345
0.20179465632951227
0.14765108825021436
0.14072610279631317
0.15307925529991964
0.177503500038416
0.20821863194729118
0.22997221904677384
0.23277780520526625
0.21653781640116818
0.18189016531090374
0.14317454109953484
0.11894127470668468
0.11004451659841691
0.1109806616595426
0.11320569577936017
0.1132844121513565
0.11207744851975052
0.08211159680874457
0.052145745097738616
0.022179893386732666
-0.007785958324273284
0.07609317454122085
0.07814917686880068
0.01809178336266587
0.013236762593265798
0.010751905300398865
0.011075469836069139
0.010785339422746267
0.008765706340408274
0.008419061730935824
0.011333032687147686
0.014980712108737759
0.021505093810816975
0.025744109435515354
0.02316267998517414
0.022980599714101258
0.0328520709500804
0.05229551704939261
0.07934320050295403
0.09886269876560795
0.1440798457236055
0.1944139508115332
0.20960950765815134
0.21215408075663358
0.16300150325865426
0.09829962184620136
0.05844503251655715
0.06007996904066221
0.09261369435207084
0.13332734401282056
0.20676629542078986
0.30218338662964284
0.3392290815886764
0.3516446973085349
0.32434256912274706
0.2492206421796654
0.1941445344862401
0.18112787918855625
0.3902399661532766
0.4629402790294127
0.7252834158128796
0.7487691184117053
0.6249850501348411
0.5516876372829048
0.1961040196065038
0.1312164722697303
0.13688264494357158
0.15841003725062944
0.18504634149043872
0.19989736523412643
0.20302022225320507
0.1941646551308699
0.16478232209743562
0.13478392354134194
0.11259350649041903
0.11072934578577986
0.12940475105385327
0.14207664451049978
0.13978079738759078
0.12355965207659643
0.09959106287553676
0.06236796447821663
0.0251448660808965
-0.012078232316423632
-0.04930133071374376
0.07741430926647155
0.07951889340941357
0.018987970722018604
0.013796145395935244
0.011370293950455862
0.011784398978079515
0.01145995476880778
0.00926046809016075
0.008902685332525641
0.01199222073106
0.015859522424436254
0.022827939976174782
0.027284647556916324
0.02457406682497967
0.024142880922925086
0.03431035902061322
0.054705111057018016
0.0829463292068136
0.10256009534047661
0.1478672883924989
0.19705460648999673
0.21013279190417175
0.2122084107933904
0.16199850522680329
0.09655754926249815
0.0566324737746134
0.05795191443186571
0.08949386073933459
0.1294161789734043
0.20254850243616038
0.29912770371084035
0.33732737843284916
0.35104958216433296
0.325722666296754
0.250966179292514
0.1954283608737985
0.17828128514674868
0.375835948901121
0.4411407706423637
0.7227812064352086
0.7489742077890917
0.6329495006260122
0.5669332177681727
0.19633949322000532
0.13039914556289345
0.1368848520804842
0.15909645838324663
0.18561832062890352
0.1990510846107207
0.2005110287439307
0.1906420286130789
0.16023559392033024
0.13091556182852415
0.11029081808459885
0.1102959635134833
0.13114947775566366
0.1444813013000414
0.14167113656190636
0.12420545488415857
0.09868395754252637
0.06096577588697857
0.02324759423143076
-0.014470587424117054
-0.052188769079664854
0.027792139075507854
0.02957840212742486
0.008309277885946716
0.006499237573911532
0.003860106169124441
0.002367115313125531
0.002188085926250829
0.0018013035966588681
0.0031059120275222945
0.005075913279822919
0.007402281696888241
0.009976931901827586
0.010192310448678464
0.008906203682696689
0.010367080284645922
0.011771218405501988
0.014467117842434552
0.03181876230548659
0.053084806504407896
0.0965568379497504
0.15782317053045397
0.1919222448476248
0.19631152029949486
0.165447314873007
0.11781572300965487
0.09382959533037202
0.09812031995007534
0.138159022627647
0.18881800397005172
0.2410544158674248
0.295420214081833
0.2943206336751833
0.26270912362340404
0.1964964853284707
0.124805571087354
0.1629694842952844
0.3003438063223255
0.5065400947393366
0.6447559278289676
0.707442364594283
0.6561176224318873
0.5201066024048545
0.37015413200871355
0.20842825482266966
0.15595234048620635
0.14359419072563592
0.15276924257389377
0.17501461883006952
0.2104075468710332
0.237395336303889
0.2434669984769178
0.23148324927745195
0.19681698892133928
0.15440908462176922
0.12341215510745154
0.10531518908183972
0.1006179289418698
0.10301225953099369