# vtk DataFile Version 3.0
vtk output
ASCII
DATASET POLYDATA
POINTS 5568 float
9.21762505237737 0.2172206787881204 -23.36833124266203
8.27824229205972 0.22394360426410811 -21.806496487565234
7.774502739350183 0.2215675105652207 -21.0384544530944
7.27282253241663 0.21520584065671886 -20.270226534531464
6.759384129116326 0.20831153902171967 -19.50995854518911
6.238852920250754 0.2051107810215203 -18.754444827420446
5.716563089658102 0.20333392721907204 -17.999382189553163
5.194441394557494 0.20065635458156142 -17.24391438860622
4.675000510951333 0.19648694933154628 -16.48787929092189
4.157994426856335 0.19286576209625553 -15.732735857585478
3.641716753534231 0.19018896470212215 -14.97887890548183
3.1260326124019215 0.1889832417765121 -14.224145921645377
2.6123321448282297 0.19305200649494997 -13.466938206557746
2.10238106209135 0.20338739945455828 -12.707102630569041
1.5955473371613067 0.2205477696174454 -11.944271408360457
1.0932285463055673 0.24433516505667177 -11.17957472910758
0.5963834078057122 0.2717408315086079 -10.414191196646886
0.09669319506313773 0.3002189180960153 -9.650458529469963
-0.41632534557680095 0.33618489350579855 -8.892514048291059
-0.9531072377679197 0.380979877507301 -8.146448758568567
-1.5097132639846418 0.42371206596012545 -7.418232513510679
-2.043603126421748 0.4386715138332764 -6.7173401997096684
-2.519575967526067 0.4149305967175722 -6.0023730049042445
-2.871923268323507 0.3259340132384042 -5.2526594657040535
-3.0443273815543654 0.1672112156489937 -4.486265935003599
-3.08411455042689 -0.032705318567445796 -3.711347097813395
-3.049797765645472 -0.23562038079685263 -2.926178445805605
-2.9735040900706795 -0.4147156174972434 -2.133631230109962
-2.884783270081025 -0.5501538840873628 -1.329971303138872
-2.8076199603724055 -0.6407709486860403 -0.5285837587007384
-2.7589972027797933 -0.6562941692485784 0.26583289980175695
-2.750034376886691 -0.542290870855591 1.0076023661087823
-2.757466771760155 -0.3085356250189216 1.6501822884412285
-2.7601976019609933 0.0347812329303423 2.2099157850303772
-2.7557390945540154 0.4627105656121465 2.639744787896539
-2.741190974865095 0.9475495370193459 3.018526531774
-2.7162082236123997 1.4959531746723447 3.3720167173154816
-2.680419551708075 2.1135107246651352 3.7291880671788853
-2.655310389886177 2.7480187231859277 4.109280018437363
-2.6840330591779287 3.2227305071338614 4.461716618782802
-2.7639052546104015 3.669885528222019 5.010014245611133
-2.901768263184649 3.806387875213337 5.55321112350254
-3.0179819344564267 3.6734639671857052 6.168936846457559
-3.1318417143067347 3.1774659639967457 6.613553744195156
-3.2078221584283355 2.5001289572811634 6.945769866205221
-3.231240213999692 1.7144066404725886 7.188235835194789
-3.18772726418691 0.8751638571724607 7.3562214362904195
-3.0730357861201285 0.03384590558169498 7.46713161275754
-2.8765191082968515 -0.7734620087354066 7.546036257090071
-2.584325345103674 -1.5104728417425495 7.616626552702825
-2.198040693786547 -2.158493941636919 7.692736796816448
-1.7245889317471883 -2.71724571794964 7.791695530626346
-1.1740375205329487 -3.1677436179994722 7.936431726644558
-0.559083573962887 -3.50186504102653 8.144372185248034
0.10497123258959973 -3.729274516162842 8.418225861558415
0.8206648646864547 -3.8524308227976705 8.758947185568655
1.5690136534585304 -3.8733376663743844 9.155959590637092
2.340979372224176 -3.8013321864890854 9.581972272717232
3.12823829727847 -3.6463677328349653 9.998596862321174
3.925790841413246 -3.415962836806313 10.37624713106984
4.759678183605626 -3.104734597260216 10.698806469470124
5.664372898402053 -2.689135243571827 10.951468785307007
6.632294643162306 -2.1483577717225555 11.09437301144574
7.5425320585737925 -1.5269134151192252 11.104407912124104
9.063640730110958 0.04526920958747137 -23.26411456224938
8.272985536063898 0.0707407627347772 -21.835711335071046
7.7627673792772764 0.11554982551927576 -21.063782675386005
7.2514470487360025 0.1513940588147583 -20.29214015210709
6.730528535927147 0.1838715406259167 -19.52762416712174
6.2057787562659295 0.21616651544188256 -18.764197050442817
5.681605414386793 0.24619414522049554 -17.99869143339158
5.157146661588148 0.27353113704867216 -17.232561711316354
4.633796689221778 0.29858497251043953 -16.465736633608604
4.112111983007141 0.32447709980357026 -15.699250375187216
3.5923447749231676 0.3509380701207535 -14.933228975653668
3.0747016287409634 0.37836376985203574 -14.166329567407134
2.5592607246116468 0.411217289615374 -13.397701923783272
2.0471152213995003 0.4494346698417764 -12.626203025784124
1.5379926121902927 0.4942203821894486 -11.851771049260766
1.0331858371595173 0.5489066575557452 -11.077123556652229
0.5361538371925851 0.611028304931337 -10.301864099111183
0.040915489210481826 0.6769710876292475 -9.52682792713732
-0.46368786359182323 0.7508298434993624 -8.755382707291327
-0.9850216126882242 0.830073896120543 -7.990818473114474
-1.5248891171553325 0.8966299239237306 -7.238484339366254
-2.0519546772581703 0.908845790948803 -6.510284510187328
-2.52581385696503 0.86126201119931 -5.768761506858316
-2.884135728129997 0.7308794436066732 -5.0024220677606435
-3.0865574643402756 0.5066479209169805 -4.228673025701463
-3.1526830004173623 0.22423031486298084 -3.441373226972546
-3.13319724027299 -0.07568138544220748 -2.6582693865582483
-3.0736397052002995 -0.3698392481025649 -1.8685573688822281
-2.9988172254281142 -0.6154216769993628 -1.0588103197202392
-2.9172684340623314 -0.7749427680029987 -0.24776591292863226
-2.8359292622266876 -0.8365970261552175 0.5539146706916214
-2.7652281274548924 -0.7716430690538152 1.3286943343757325
-2.7104844536256762 -0.5772082889756089 2.0465359633402147
-2.672273601505773 -0.2735980461410649 2.6297891490035075
-2.6504395844938444 0.1277973837517697 3.0916495924892597
-2.6351818047666207 0.6370388700822627 3.4816691123219883
-2.6144515813873195 1.2445644062869272 3.8130268070954654
-2.5810542096499645 1.9337664044638538 4.126753178712208
-2.560750925070131 2.6574799465482237 4.4743918915751
-2.6462291171491503 3.261495058326826 4.9038111420889505
-2.79907070859076 3.531448407190238 5.2512959435387705
-2.9629877309727397 3.6108843443849143 5.557899374030748
-3.1122242473679136 3.548578984478655 5.841658779065262
-3.2532701506861725 3.2508234037814274 6.10947273940838
-3.3567940034146435 2.6927540358464213 6.3593640903121145
-3.373898220572697 1.9564672330524715 6.568417528589952
-3.286373143698399 1.1075076966941246 6.7281827003186345
-3.0968469886786685 0.23592711600817529 6.850459307590121
-2.8109788272139675 -0.5969024724073206 6.97481916353675
-2.43615579625665 -1.3586009841320141 7.1271119981645645
-1.983511154938502 -2.0281082081251665 7.3135607504139415
-1.4512915593036166 -2.590284412952752 7.544779162173799
-0.8463998788642328 -3.01758959989845 7.839369409770306
-0.18853407986272286 -3.30269679515496 8.201676526109079
0.502648667316622 -3.4646235042496043 8.618454527140406
1.2308369619688406 -3.5216190682165163 9.07005505828169
1.9946687196684505 -3.4934225101223557 9.530781981990012
2.796309476719747 -3.390299055619011 9.967722655073427
3.6213354760035337 -3.21540099209304 10.349273779017642
4.467755777450347 -2.966996860812654 10.660538895148614
5.332104009645066 -2.639269559842418 10.893108679888323
6.246584691776554 -2.208564819150352 11.049575458588118
7.178003834348376 -1.6729899226523162 11.114590175340764
8.04377996559432 -1.0820056641897287 11.096100833991889
9.246345010950744 0.2492917299145412 -23.387768927616264
8.277848602287007 0.25227928432244784 -21.80018995228948
7.775167316915851 0.24114392057398418 -21.032649345002
7.275159047201721 0.2269515869257687 -20.264876737164716
6.763006221836461 0.21275005506774383 -19.50524532748486
6.243174914110177 0.20296754339490855 -18.751079431801532
5.721167881310937 0.19529635502226644 -17.997856328992665
5.1994208469049825 0.18705741494739478 -17.24427953465506
4.680650045478624 0.17747643409649416 -16.49016414401192
4.164455817618752 0.16839331448162007 -15.737040958059213
3.6487707597853865 0.16032436595255148 -14.985357451532181
3.1333968530854146 0.1538175508219027 -14.23280023557899
2.6199659501159287 0.15255543250313838 -13.477629827522177
2.1103731356856406 0.15772983517302766 -12.719882035668173
1.6039170102727374 0.1697779893274255 -11.959128865301059
1.1020009290806208 0.18784511973569734 -11.196186790937277
0.60511478440246 0.20882105376844232 -10.432517043246332
0.10450436009787112 0.2303560747834684 -9.670736305357519
-0.4101811957606243 0.2593006415463939 -8.915139425077992
-0.9499450504627596 0.29771402728390994 -8.172345124401192
-1.5097433426611537 0.33603982871538945 -7.448477143477061
-2.04491571819695 0.35150566813247924 -6.752585834494705
-2.5213160978253164 0.3321438852959248 -6.0424394085415685
-2.87263610373585 0.2507276673374499 -5.29563016449432
-3.03967206406803 0.10386734164629469 -4.530061587148394
-3.074711794254076 -0.08124932099175236 -3.7566634301916753
-3.037629626717279 -0.2666845526695404 -2.9700029740005744
-2.958117506897655 -0.425073490714461 -2.1753362421085702
-2.8666944123417517 -0.5406037979328603 -1.3713451791052043
-2.7902829620503975 -0.6186128213555984 -0.5711657390713563
-2.7476854692943355 -0.6256123120112302 0.2223259963811023
-2.749974577702243 -0.5025298487509422 0.95893002552645
-2.7684477691095193 -0.26150571843211456 1.5889608445578443
-2.778810951121085 0.08954497276356704 2.1448563617480385
-2.7775743588761053 0.522652809317756 2.5689963812020684
-2.7631566071080536 1.0030102415788809 2.945700996290874
-2.7373965311635198 1.5409963183529691 3.3033339539916025
-2.7011448636294473 2.146192941513151 3.6686550122822807
-2.6751654120638526 2.765234824966845 4.054755485577075
-2.6946014898360278 3.2178316279508072 4.393862233703305
-2.756503450457025 3.704835796646263 4.987072966291993
-2.8867471596024887 3.8543236992012777 5.584299062045988
-2.991557564626173 3.70444251185419 6.279915959299779
-3.097652383936486 3.1646964640443094 6.763527707869118
[...]
CELL_DATA 87
SCALARS quad_param_group int 1
LOOKUP_TABLE default
3
1
1
1
2
2
1
3
3
3
3
0
0
2
2
2
0
1
0
3
1
3
1
0
3
0
3
1
1
0
3
1
2
3
1
2
2
0
0
0
0
0
1
1
1
2
2
1
3
3
2
2
1
1
3
3
3
0
3
1
3
2
2
2
3
3
3
1
0
2
3
3
0
0
1
3
3
2
2
2
2
2
0
0
0
1
3
SCALARS single_component_feature float 1
LOOKUP_TABLE default
-0.03370227477884967
0.02450797655156245
-0.04455919827696192
-0.024078375562662204
-0.0018391093331930827
-0.02839279438110939
-0.05230318396957857
-0.030492884005978882
-0.0148525975701281
-0.01091916946242798
0.022059751327219494
-0.006442837745301664
-0.03056656311249425
0.06772746044125627
0.03353512358985927
-0.0004137455954976929
0.036219314193621704
-0.0008131145392300397
0.04062550514060434
-0.06613669215212814
0.06662270494766219
-0.010718660612214638
-0.006209665438442312
0.05444168981840354
-0.01117021123042677
-0.0070517590702658724
0.08123127184009402
-0.05956116982219278
0.023559830272866816
0.01666397571671175
-0.022458922397156543
-0.03461613264008541
0.042514816793847
-0.06859749511154256
0.0504665826861459
0.06716036279437947
0.044140978984752485
0.11661818075073052
0.05263186174188347
-0.02368550266500158
-0.028225142380837183
0.023770690473144736
0.07946242303288997
0.01784007652848065
-0.05209333887708188
-0.04963970812837273
-0.017578940444706124
-0.016862608080479034
-0.06436267520423994
0.008466784908639882
0.04851635411316188
0.025470932740890267
-0.011547776480806387
-0.021778864299991874
0.0043153319309256755
-0.08174747377157845
-0.020686506449717285
-0.003337021479971298
0.013166907013250413
-0.06398517125842207
0.024828747923043543
-0.04215700763278875
0.06021632025129522
0.020845410552927143
-0.030936642641597942
-0.013814732977411152
-0.0632290765793082
0.012230669938611972
0.031768973187531885
0.0002362629182551812
-0.07118779919268432
0.006591386241342919
-0.0905139609092638
0.08796388799479642
-0.07617076774536755
-0.037009732284653075
-0.0095944657108165
0.0333399803408642
0.08573610331367199
0.004969232140872507
0.04848627436496133
0.04414337221368412
-0.06197338352911783
0.024960573478421084
-0.010765160333878612
-0.033957711264354304
0.01468364393705263
POINT_DATA 5568
SCALARS single_curvature float 1
LOOKUP_TABLE default
0.026847095788978547
0.029607811522598865
0.008945365613038707
0.007930168397130542
0.004583383804517796
0.0022978380048958003
0.0019232586010020421
0.0021646549417752184
0.0031063975995349975
0.0049452259832479155
0.007053337459552431
0.008970526447948334
0.009010643289236581
0.007729982939416814
0.010127659564156188
0.015829929099610895
0.021889060102921062
0.02960819266647418
0.04794924795774215
0.09121322915508909
0.1575428987664257
0.2012935212237302
0.2058597427552335
0.1736296229472234
0.1168376165457185
0.08058562335226288
0.08419590799148739
0.12832345992338362
0.18829761168969797
0.2472875850441796
0.3132236083928168
0.30168875265624695
0.25955662886441055
0.19946945464596227
0.10590021005228709
0.12338154126909852
0.16318006896544868
0.3638333850711001
0.4835293937188941
0.5802249551357173
0.5853316071164621
0.4510306171118372
0.35263722014439575
0.19401251383529414
0.14725761061678674
0.14472559166676774
0.16333520825532352
0.1893462204750509
0.22133580853352258
0.24320273835433415
0.2452737898075463
0.23490465782540249
0.2076304148294095
0.16957573474506826
0.1380361176249393
0.11691757234401244
0.10595855573090712
0.10412971855376467
0.10841369830093935
0.11695938764226264
0.09034616263903096
0.06373293763579928
0.037119712632567595
0.010506487629335912
0.04661512515045726
0.04771277390303955
0.008175574073819927
0.006328892633509567
0.0034718597139576507
0.002799527857296574
0.002401074312262236
0.0023315320385192597
0.003346032481851844
0.004918878367919713
0.006736233438899763
0.009133580556361381
0.01037877406371394
0.00959396454627468
0.010998813066072548
0.013218614175219691
0.017613812272745166
0.03312193994984703
0.055148479230397285
0.09856756706583789
0.156140516553736
0.1906242226319578
0.19575339642152265
0.16201175654226857
0.11579928058132333
0.09458137306118874
0.10055871690042267
0.13864790254292883
0.18188128806229342
0.24020750956794493
0.30111218638490395
0.32079921479277385
0.31020652416568895
0.2458453522461364
0.15509098816954653
0.15919990925329738
0.3894882738443055
0.6323192506531952
0.7914501288929304
0.8473522097820312
0.7771999652086165
0.6265669227201874
0.4104896901671349
0.21474266210521994
0.15600357392086606
0.1415388689022379
0.1474390654554873
0.16860540161664117
0.19990419989112107
0.2236369484599023
0.2285300878895935
0.21228732515114737
0.17512794948477164
0.1366125283921321
0.11421562048716026
0.10689377147267941
0.11067271450427048
0.11368351437352965
0.11377230854249715
0.1112487268468451
0.0811227911352391
0.050996855423633095
0.02087091971202709
-0.009255015999578911
0.024759512797364307
0.02785830224568476
0.009545629654991013
0.008599136137079477
0.005162147486020156
0.0025514897469051134
0.0019395565388085792
0.0022523754316942173
0.003158936233797054
0.005044489522257713
0.007140663882863335
0.008965401108965034
0.008791565728147927
0.007674503315492817
0.010271878010985891
0.016603107625010514
0.02312518680256206
0.029106354404730972
0.04689739159847269
0.09023710887003294
0.15817356706501054
0.2035319584019948
0.2078161351271554
0.17585810440097793
0.11689027812244766
0.0783084711293325
0.08201588822406769
0.12738129021135025
0.19074895705378497
0.24937591627506722
0.3159237800908908
0.2982596014719921
0.24944971648334285
0.1901762852440358
0.09591532838261432
0.11306593782404493
0.1411483888456775
0.3287513712376681
0.43642275614856774
0.537116788839582
0.5526214991795158
0.42671617994189875
0.3435191712519836
0.19163718612768033
0.1469633321045214
0.14643384830958237
0.16755000631979125
0.19404868924046442
0.22498994054458943
0.24538497010982846
0.246390413073247
0.23764664269033775
0.2137275543861162
0.17765326095712902
0.14543654723417637
0.12165165442339859
0.10712404327261046
0.10319800122600868
0.1075828247153254
0.11795124108098538
0.09202337167330397
0.06609550226562257
0.04016763285794116
0.014239763450259749
0.029530280972799364
0.031994818436622975
0.008468808679100277
0.0073566966662688485
0.0040900348691848215
0.0020900251198421645
0.0019400756404649474
0.0021190155967341136
0.0030870961884888306
0.004883734706018227
0.0069849318336541125
0.008983275340135941
0.009217972367157282
0.007834816852223524
0.010058409146622246
0.015195637954878488
0.02087942806512541
0.03009532139477713
0.048968392445849794
0.09219322539653439
0.15708588426592
0.19937204736402128
0.20414019168293315
0.17165184789807791
0.1167462203512379
0.08275854011306809
0.0864409355477125
0.12950188572971436
0.18652218453963348
0.24565379150885075
0.3109413405861407
0.30480872426176236
0.26841731704258415
0.2076025656688474
0.11460608994658697
0.13137491251650385
0.185550523452306
0.39788876415561697
0.5286189290477863
0.6213262811972278
0.6157770494325517
0.4747895718743838
0.3610521886822406
0.1964855024598077
0.14791880504447022
0.14355256985647954
0.15994014120893088
0.18538620727892566
0.21797601394829436
0.24083766338748958
0.24370955541736358
0.23203454359460882
0.2021582535332438
0.1628188847380057
0.13217707312655444
0.11342824575959139
0.10545055279377889
0.1052068452582717
0.10920908300358333
0.11605853243850135
0.0888424292666977
0.06162632609489406
0.034410222923090414
0.007194119751286768
0.03711227269783128
0.03891266671450875
0.007824431796857868
0.006407956166584211
0.0033277369135610683
0.0019707723064417136
0.0020857575607079373
0.002137341447369024
0.0031459678265861844
0.0048423638356226446
0.00685442880863319
0.009036969878804462
0.009731198102809677
0.00839221689684313
0.010226645482136736
0.014038109760738835
0.019000142873252527
0.03136322950410983
0.05159894166851332
0.09483291843848926
0.15637694258409804
0.19516685556475669
0.20023414057304034
0.1671352185800359
0.11639982617604648
0.08807646589882416
0.0924446341836826
0.13314928280125835
0.18359834732575867
0.24262037272391104
0.30608982462089734
0.3121408483678691
0.2882565602219998
0.22577090053770374
0.13393959240465245
0.1463765060061468
0.2545591006853657
0.49090694547303854
0.6447190000091532
0.7245185122972126
0.6898743840968709
0.5381694213981131
0.38183135671747304
0.20357672679604966
0.15073864384303765
0.14192579349467124
0.15330320016004936
0.17704209013091482
0.20987962974054875
0.23395457589736562
0.23815951398676566
0.2239703936970782
0.18950588218587588
0.14900816236504086
0.12144330377627269
0.1080895519986903
0.10624321941393737
0.10852933492417845
0.11121297026217035
0.11390491515774613
0.08532267504418244
0.05674043493061874
0.028158194817055046
-0.00042404529650864886
0.02825509147569737
0.0308519291239437
0.008676721469511716
0.007611597692643967
0.004308987691845044
0.0021813437294106405
0.0019289571118787786
0.002135477967812845
0.0030923510415048
0.004907992920793612
0.007014600748094749
0.008976674735345436
0.009123686517022181
0.007780058850092348
0.010081323498057121
0.015472645729570429
0.021320346063719162
0.029872254097557123
0.04850197875328293
0.09174111532844823
0.15727924895168577
0.20022602427263167
0.20490916264761977
0.17253797398112128
0.1167920700991677
0.08177052041174304
0.0854027428359536
0.12893827015510637
0.18727567363336728
0.24636129557674238
0.3119511906392677
0.30340320505665086
0.2644607570592882
0.2039725210840433
0.11072416052650057
0.12791642957335297
0.17511546406898706
0.3822315312117895
0.5080028599802079
0.6025781439043694
0.6019719642245114
0.4638720513046109
0.35724074189770727
0.1953336898938504
0.14757752765951385
0.14404035624989045
0.16142243151293237
0.18713625302360595
0.21949495040064607
0.2419465688167469
0.2444762495175637
0.23337070822444866
0.20461654887864797
0.16579672535096265
0.13471839196083796
0.11490781672247151
0.10561595085731512
0.10469535712184433
0.10884621197376342
0.11646484636714037
0.08951835103292995
0.06257185569871952
0.0356253603645091
0.008678865030298674
0.02416746237561517
0.027509301996533925
0.010024452219046416
0.009096439663049698
0.005595120018274624
0.0027511956742637374
0.001978063014433985
0.002335051561693372
0.003213369561022638
0.005131686762083244
0.007209898467586881
0.008968525163603799
0.008647320763963143
0.007665776087270122
0.01040743437101424
0.01718079109839348
0.024055071453708575
0.02878440545196339
0.04621914749130514
0.0896333320725692
0.15870411536252213
0.2051727923284581
0.20921980549226007
0.17743698673033195
0.11689164753644314
0.07685420774768476
0.08075151064950675
0.1270215279919863
0.19283955331483932
0.2510261904730476
0.31792611879471006
0.29590713617632936
0.24222843453755294
0.18352690417833567
0.08874559805214843
0.10476689858250154
0.12676718712590768
0.30539096913690683
0.40500058233445513
0.5085419801731192
0.5304411943705625
0.4108626363709393
0.33726154008326426
0.19020798853072376
0.14706249244133052
0.14791685953833109
0.17080135218546866
0.1975407887894033
0.22749361632349077
0.24661324367917803
0.24675560764482862
0.23926614995272816
0.21799907318584733
0.18366197498406892
0.15118313987892318
0.1255157996239631
0.10832247344041263
0.10272075743635826
0.10703887873462259
0.1186423704511913
0.09320539719655277
0.06776842394191424
0.0423314506872757
0.016894477432637167
0.02767431997772336
0.03033584606166014
0.008781234881924904
0.0077369794252007025
0.004416889404467049
0.0022268906327662192
0.0019256522631753556
0.0021458668190546567
0.0030969275218021997
0.004921766862845506
0.007029622429334749
0.008973974644640946
0.009078559887478898
0.007758147302394645
0.010097440973658056
0.015611994888734016
0.021542072377850184
0.02976641333117728
0.04828049604247085
0.09152850319618952
0.15738011322388745
0.2006460873543636
0.2052846121724707
0.17296969954588803
0.11681155738573301
0.08129735867667397
0.08491558481920547
0.12868422411392477
0.18766701572768865
0.24672029200822349
0.31245060248773165
0.3027228137321378
0.26252518544805437
0.2021957304163695
0.10882186667462737
0.1261604770631697
0.17028455627579103
0.37484506253242755
0.4982053688370099
0.5936396094918296
0.595342380747238
0.45871548248505484
0.3554085096343568
0.19479848264630825
0.14743758484334638
0.14429999044887853
0.16216730508168975
0.18800304752300573
0.2202269698494928
0.2424579165996916
0.2448111322149217
0.23399220136412877
0.2058104743017761
0.16727688821927048
0.1360060048732273
0.11567810658196828
0.10573325706246878
0.10446312334713291
0.1086732192585932
0.11666118595144527
0.08984633027799135
0.06303147460453744
0.03621661893108352
0.009401763257629606
0.03253007712357836
0.034714898912907806
0.008056965179109546
0.006829049320882192
0.0036394718467656936
0.0019098063866540443
0.0019832783033211137
0.002106260994230475
0.0030948090822363805
0.004850325344552684
0.006926534173932088
0.009001809877199405
0.009425912400818488
0.008004812327199221
0.010064532268211605
0.014654680424628232
0.020013219448666814
0.030597355258623265
0.05001511841497571
0.09322698594772266
0.15673388828786136
0.19758714701546407
0.20250739965849798
0.16976464352416684
0.11662358200284774
0.08492828776982442
0.08881131807526617
0.13087680013532643
0.18512400997570982
0.24427360386399072
0.3088561097195073
0.30783925890094166
0.2767714280612406
0.21525919852248798
0.1227736895526232
0.1381404716587036
0.2106398578458044
0.4337894911792323
0.5748931172443572
0.6630040241908166
0.6460335230592213
0.4996319934415095
0.369425364948405
0.1991882783156524
0.14888157635406318
0.14270585671692101
0.15698545904309066
0.18178582655469128
0.21466641934227335
0.23821154577489442
0.2417235672126349
0.22891926534864762
0.19689218045943194
0.15675857786355724
0.12723028666532005
0.11074055035500506
0.10544294425578143
0.1064509283408822
0.11001577878829435
0.11517674782129166
0.08738855327154167
0.05960035872179169
0.031812164172041704
0.00402396962229172
0.033885698162972995
0.03595287028494826
0.007906795807010099
0.006624462302886014
0.0034678561316849473
0.0018521069734913876
0.002009454529584222
0.002109932467742346
0.0031056739060557137
0.004843457321445807
0.006903561320962455
0.009011395902626096
0.00951685785083435
0.00810294947380924
0.010093803908988097
0.014449353482937341
0.0196801648214469
0.03082171281679206
0.050480992406044645
0.09369458828783822
0.15660892231366175
0.196843468328276
0.2018164278505208
0.16896498549416306
0.11656184886332008
0.08587130129205398
0.08987691651528433
0.1315258449291238
0.184610297210452
0.243738615355877
0.3079982599617659
0.30913780507312183
0.28028253933994113
0.2184742600834573
0.12619482858973619
0.14078242147327275
0.2227250219595622
0.4502057734807592
0.5954883076840533
0.6813341833204829
0.6591805383713123
0.5108521831472221
0.37309502419542645
0.2004421555389891
0.14938387517618168
0.14242154229405013
0.15581355233745559
0.18031054417085576
0.21323276104677705
0.23699061218963002
0.24073777776652286
0.22748907412526265
0.1946504947103264
0.15431247324324257
0.12533087424278136
0.10979668280360169
0.10558459800516427
0.10704091903391356
0.11037105265649401
0.11479564937662257
0.08676568977030939
0.05873573016399622
0.030705770557683046
0.0026758109513698725
0.04574463427371207
0.04690003239261442
0.008130763199685226
0.00632566653613124
0.0034478777275221014
0.0027191621008260543
0.0023672733878801135
0.002307893886337465
0.003323884776594549
0.004908420021707277
0.006745988297446826
0.009123422823430401
0.010317394395010537
0.009468474376880311
0.010911469170940996
0.013279633049907317
0.01771409669575327
0.03294681535607044
0.054801127018118456
0.09819534443782255
0.1561356267918396
0.19102596122755672
0.19616247969813608
0.16247363628268413
0.1158622766334944
0.09397494314580317
0.09977152109308107
0.1380966191208898
0.18197147106755304
0.24038480742148335
0.30154066295516185
0.32000244601079386
0.30824744794014375
0.24405270886610994
0.15321239040286652
0.158195517388914
0.3737397076627011
0.617838081375064
0.7782854068137928
0.8367084304366287
0.7694792428499355
0.6179830618329857
0.4075151688292614
0.21356349725359755
0.1554416879858081
0.1415205676178753
0.1479026022141727
0.16932718551692888
0.20084189433835498
0.22467859344933352
0.2295456948214033
0.21345191392027046
0.17641373464736163
0.13756665728692938
0.11463278560011764
0.10677316109306911
0.11011348076586862
0.11316156568119165
0.11353001280858352
0.11149899857361856
0.08151214603332083
0.051525293493023094
0.021538440952725363
-0.008448411587572369
0.03546350257311109
0.03739822580790883
0.007815133618022767
0.006467991505903097
0.0033489944694913205
0.0018616432165959851
0.0020444537146249667
0.002120305354066844
0.003123061030980621
0.0048405195669355
0.006878692348199882
0.009023427575250367
0.009621806876423705
0.008234775228029149
0.010148052153242843
0.014235781957114177
0.019329484513222934
0.031084547825401914
0.05102485224310822
0.09424565027630126
0.156484754454064
0.19600989276069056
0.20103409927144142
0.1680598077852231
0.11648524903379238
0.08695418215586519
0.09112498893784571
0.13230543399937725
0.1840819250726825
0.24316736050674478
0.3070448852061385
0.31061785721194196
0.28423736773033514
0.2220938982303311
0.130040235655016
0.14362519830094622
0.23767874826913227
0.46976633669746337
0.6194914396677572
0.7025047787415535
0.6742688363574413
0.5240757717229314
0.37735232119215023
0.20194494579129493
0.15001867378567038
0.14215013028563953
0.15454244091585123
0.17867536684302002
0.21158682112383542
0.23553090054656825
0.23951846678867034
0.22579121308377617
0.1921075359206564
0.15163610170966632
0.12332664219113655
0.10887229826650545
0.10585157116114041
0.10775332387254544
0.11078257380975944
0.11435839148380553
0.08605509059793325
0.057751789712060964
0.029448488826188682
0.0011451879403164
0.02765447955298899
0.030318278371492206
0.008784942195595388
0.007741393176941928
0.004420690079809117
0.002228501171850597
0.0019255613061268727
0.0021462590006493133
0.0030971116407975596
0.004922273037304271
0.0070301565050709626
0.008973886197530583
0.00907698627207569
0.007757430515643369
0.010098060933283136
0.015616932677980758
0.021549930371411063
0.02976273295502504
0.04827279282815901
0.0915211339104844
0.1573837327713756
0.20066087650270562
0.20529779744139873
0.17298484862404576
0.11681220652769686
0.08128086010357495
0.08489872083020199
0.1286755636524523
0.18768104662213228
0.24673306191574818
0.3124682162918074
0.3026989936892135
0.262457173413109
0.20213328606692096
0.10875498525335593
0.12609798604483913
0.17011779145541628
0.374588578749719
0.4978644407697357
0.5933282960770243
0.5951109055653988
0.45853642076031315
0.3553444990591337
0.1947800064814545
0.1474329913150245
0.14430936810380285
0.1621937160471968
0.18803363332202097
0.22025256106734628
0.24247551434915776
0.24482242142950644
0.234013657195238
0.20585232193711778
0.1673291701754142
0.1360517704885875
0.11570572015016489
0.10573780692568287
0.1044551768672887
0.10866719484826443
0.11666805700538577
0.08985782421387502
0.06304759142236427
0.03623735863085352
0.00942712583934277
0.060886602230632456
0.061794811119892136
0.00988086188125667
0.007280772919590023
0.004777506432066875
0.00427858910731539
0.0030956873061222423
0.00287127502336683
0.003795149472949858
0.005155499268317233
0.006590609361284767
0.009340495504146645
0.011482434510275485
0.01195495478053102
0.012768608605244612
0.012376775055993116
0.016492805252319342
0.03658512500595413
0.06174263364585355
0.10583614724835999
0.15708401409546915
0.18421385958779318
0.18878129832533375
0.15442563119251837
0.11445860312915401
0.10510612618466317
0.11509352922195051
0.14922477082379335
0.18219856589860364
0.2382450420844763
0.29453591237882315
0.3343647846165986
0.3418206746807492
0.2749324752260521
0.18523228075939469
0.1720339527943889
0.7513523275655701
0.8815965744943972
0.9546911622945394
0.9721096048135773
0.8801167278477013
0.7639332559511036
0.4916420780967455
0.24168618189443752
0.16765632977636136
0.1428911030351911
0.14133802996388392
0.15755837012950505
0.18324221806800453
0.20330103586856346
0.20759767654135844
0.1900306771635962
0.15494210316994902
0.12621885748699518
0.11452551897823274