# vtk DataFile Version 4.2
vtk output
ASCII
DATASET POLYDATA
POINTS 128 float
0 0 0 -0.110335 0.241803 0.23152 -0.325515 0.700558 0.662586 
-0.517597 1.07898 0.998815 -0.703289 1.4042 1.26437 -0.919597 1.75154 1.53224 
-1.16146 2.1159 1.80389 -1.41441 2.47211 2.06166 -1.68138 2.81936 2.30405 
-1.96855 3.16214 2.53354 -2.27492 3.49887 2.75115 -2.5979 3.82642 2.95723 
-2.93774 4.14321 3.15128 -3.29529 4.44807 3.33262 -3.67015 4.7395 3.5011 
-4.06156 5.01594 3.65667 -4.46891 5.27587 3.79902 -4.89162 5.51782 3.92775 
-5.32888 5.74013 4.04267 -5.77974 5.94105 4.14362 -6.24317 6.11855 4.23058 
-6.71802 6.27042 4.30364 -7.2029 6.39381 4.36318 -7.69624 6.48556 4.40981 
-8.19582 6.54195 4.44469 -8.699 6.55905 4.46937 -9.20213 6.53319 4.48634 
-9.70099 6.46106 4.49861 -10.1906 6.34117 4.51001 -10.6657 6.17317 4.52472 
-11.122 5.95962 4.54668 -11.5556 5.70458 4.57959 -11.9646 5.41357 4.62565 
-12.3486 5.09278 4.68619 -12.7082 4.74782 4.76099 -13.0452 4.38379 4.84897 
-13.3616 4.00447 4.94805 -13.6594 3.61273 5.05561 -13.9404 3.21019 5.16843 
-14.2058 2.79771 5.28292 -14.4563 2.37533 5.39486 -14.6919 1.94258 5.49961 
-14.9114 1.49865 5.59164 -15.1128 1.04256 5.66476 -15.2923 0.573975 5.71156 
-15.4446 0.0931886 5.72385 -15.5626 -0.396263 5.69305 -15.6383 -0.888489 5.61081 
-15.6653 -1.37422 5.47496 -15.6394 -1.84218 5.28788 -15.5609 -2.2845 5.05725 
-15.4335 -2.69597 4.79435 -15.2615 -3.07486 4.50926 -15.0501 -3.42209 4.21103 
-14.8038 -3.73959 3.90668 -14.5272 -4.03011 3.60162 -14.2243 -4.29663 3.29972 
-13.8991 -4.54232 3.00359 -13.5552 -4.7705 2.7148 -13.196 -4.98462 2.434 
-12.8247 -5.18807 2.1612 -12.4443 -5.38425 1.89579 -12.0575 -5.57642 1.63672 
-11.6671 -5.76769 1.38259 -11.2753 -5.96093 1.13197 -10.8845 -6.15868 0.883424 
-10.4966 -6.36318 0.635848 -10.1132 -6.57636 0.388463 -9.73579 -6.79982 0.140938 
-9.36537 -7.03487 -0.106602 -9.00299 -7.28279 -0.353445 -8.64969 -7.54484 -0.598273 
-8.30604 -7.82286 -0.839377 -7.97214 -8.11935 -1.07458 -7.65023 -8.43592 -1.29959 
-7.34495 -8.77349 -1.50767 -7.05844 -9.14182 -1.69076 -6.79075 -9.56034 -1.83859 
-6.57585 -10.0245 -1.90668 -6.48979 -10.498 -1.8091 -6.55894 -10.9284 -1.53292 
-6.74108 -11.2451 -1.1639 -6.9949 -11.4261 -0.765718 -7.28705 -11.5176 -0.362142 
-7.59589 -11.5555 0.0342898 -7.91607 -11.5529 0.423106 -8.24412 -11.517 0.803965 
-8.57754 -11.4476 1.17528 -8.91384 -11.3456 1.53628 -9.25044 -11.2148 1.88774 
-9.58468 -11.0578 2.23045 -9.91384 -10.8751 2.56511 -10.235 -10.6674 2.89298 
-10.5449 -10.4369 3.21641 -10.8404 -10.186 3.53816 -11.1179 -9.91745 3.86163 
-11.374 -9.63474 4.19072 -11.6048 -9.34255 4.53011 -11.8063 -9.04665 4.88474 
-11.9742 -8.75472 5.25986 -12.1035 -8.4769 5.66052 -12.1881 -8.22793 6.09133 
-12.2227 -8.02499 6.55326 -12.2038 -7.88928 7.03963 -12.1311 -7.83851 7.53844 
-12.0107 -7.88136 8.02802 -11.8512 -8.01927 8.48794 -11.6646 -8.23955 8.9038 
-11.4617 -8.52737 9.26578 -11.2494 -8.86746 9.57313 -11.033 -9.2462 9.82677 
-10.816 -9.65446 10.0284 -10.6006 -10.0845 10.1797 -10.3887 -10.5305 10.2826 
-10.1818 -10.987 10.3385 -9.98151 -11.4493 10.3472 -9.78925 -11.9134 10.3089 
-9.60575 -12.3761 10.2258 -9.43232 -12.8333 10.0987 -9.27263 -13.2768 9.9233 
-9.1295 -13.7 9.69591 -9.00148 -14.1055 9.41796 -8.88836 -14.4909 9.09618 
-8.79758 -14.8293 8.75252 -8.73633 -15.1028 8.38376 -8.70538 -15.3384 7.8952 
-8.70121 -15.5513 7.26505 -8.70505 -15.6499 6.92705 
LINES 1 129
128 0 1 2 3 4 5 6 7 8 9 10 11 12 13 14 15 16 17 18 19 20 21 22 23 24 25 26 27 28 29 30 31 32 33 34 35 36 37 38 39 40 41 42 43 44 45 46 47 48 49 50 51 52 53 54 55 56 57 58 59 60 61 62 63 64 65 66 67 68 69 70 71 72 73 74 75 76 77 78 79 80 81 82 83 84 85 86 87 88 89 90 91 92 93 94 95 96 97 98 99 100 101 102 103 104 105 106 107 108 109 110 111 112 113 114 115 116 117 118 119 120 121 122 123 124 125 126 127 

CELL_DATA 1
FIELD FieldData 2
Length 1 1 double
57.642310731 
Tortuosity 1 1 double
2.0020354813 
POINT_DATA 128
SCALARS MaximumInscribedSphereRadius float
LOOKUP_TABLE default
0.93 1.06466 1.19796 1.31554 1.43313 1.45078 1.45939 1.40914 1.35745 
1.29671 1.23532 1.17453 1.11379 1.06231 1.01176 1.03411 1.06498 1.17275 
1.29096 1.35984 1.42103 1.37193 1.3034 1.19639 1.08177 1.00778 0.942749 
0.932857 0.93641 0.952774 0.972576 1.02868 1.09547 1.1426 1.18342 1.16423 
1.12415 1.06852 1.00703 0.945143 0.883088 0.819492 0.755226 0.697545 0.642935 
0.623544 0.621803 0.629659 0.642671 0.691469 0.761002 0.820271 0.873175 0.904936 
0.922652 0.93592 0.946036 0.969831 1.00395 1.05398 1.11678 1.18607 1.26089 
1.38611 1.55685 1.72608 1.89387 2.00183 2.04896 2.05797 2.02577 1.98137 
1.92303 1.86222 1.79837 1.73069 1.65821 1.57863 1.48875 1.41138 1.353 
1.3245 1.34553 1.38305 1.45021 1.524 1.61093 1.6915 1.75879 1.81374 
1.84083 1.86 1.86 1.86 1.86 1.86 1.86 1.8576 1.8479 
1.8271 1.76957 1.71584 1.67597 1.64939 1.67754 1.71198 1.77472 1.8299 
1.84612 1.85986 1.85892 1.85178 1.80244 1.75209 1.69382 1.64018 1.62995 
1.62357 1.66143 1.69966 1.74279 1.7844 1.78364 1.77875 1.72333 1.66791 
1.60909 1.55 
TEXTURE_COORDINATES TCoords 2 float
0 0 0.00787402 0 0.015748 0 0.023622 0 0.0314961 
0 0.0393701 0 0.0472441 0 0.0551181 0 0.0629921 0 
0.0708661 0 0.0787402 0 0.0866142 0 0.0944882 0 0.102362 
0 0.110236 0 0.11811 0 0.125984 0 0.133858 0 
0.141732 0 0.149606 0 0.15748 0 0.165354 0 0.173228 
0 0.181102 0 0.188976 0 0.19685 0 0.204724 0 
0.212598 0 0.220472 0 0.228346 0 0.23622 0 0.244094 
0 0.251969 0 0.259843 0 0.267717 0 0.275591 0 
0.283465 0 0.291339 0 0.299213 0 0.307087 0 0.314961 
0 0.322835 0 0.330709 0 0.338583 0 0.346457 0 
0.354331 0 0.362205 0 0.370079 0 0.377953 0 0.385827 
0 0.393701 0 0.401575 0 0.409449 0 0.417323 0 
0.425197 0 0.433071 0 0.440945 0 0.448819 0 0.456693 
0 0.464567 0 0.472441 0 0.480315 0 0.488189 0 
0.496063 0 0.503937 0 0.511811 0 0.519685 0 0.527559 
0 0.535433 0 0.543307 0 0.551181 0 0.559055 0 
0.566929 0 0.574803 0 0.582677 0 0.590551 0 0.598425 
0 0.606299 0 0.614173 0 0.622047 0 0.629921 0 
0.637795 0 0.645669 0 0.653543 0 0.661417 0 0.669291 
0 0.677165 0 0.685039 0 0.692913 0 0.700787 0 
0.708661 0 0.716535 0 0.724409 0 0.732283 0 0.740157 
0 0.748031 0 0.755906 0 0.76378 0 0.771654 0 
0.779528 0 0.787402 0 0.795276 0 0.80315 0 0.811024 
0 0.818898 0 0.826772 0 0.834646 0 0.84252 0 
0.850394 0 0.858268 0 0.866142 0 0.874016 0 0.88189 
0 0.889764 0 0.897638 0 0.905512 0 0.913386 0 
0.92126 0 0.929134 0 0.937008 0 0.944882 0 0.952756 
0 0.96063 0 0.968504 0 0.976378 0 0.984252 0 
0.992126 0 1 0 
FIELD FieldData 7
Curvature 1 128 double
0 0.015999618403 0.029718168704 0.04231136433 0.053471538837 0.063056867153 0.071085822519 0.077710796941 0.083172080257 
0.087747247733 0.091707750714 0.095298936636 0.098721278629 0.10212949547 0.10565189518 0.10938623471 0.11342372301 0.11783616403 
0.12268497968 0.12800408963 0.13378959082 0.1399829945 0.14642952553 0.15289807947 0.15904915318 0.16444741825 0.16861562715 
0.17109059814 0.1714858598 0.16957447896 0.1653703004 0.15908196667 0.15112908715 0.14211823629 0.13274302035 0.1238371243 
0.11634141207 0.11130428933 0.10978558135 0.11265083824 0.12031646603 0.13254757293 0.14866163606 0.1675394584 0.18776818597 
0.20753257234 0.22480482612 0.2375125186 0.24396827925 0.24333987119 0.23586647002 0.22266265747 0.20540710941 0.18579571813 
0.16524124711 0.14474128465 0.12489874651 0.10599892786 0.088182315 0.071449277341 0.055848334737 0.04151944592 0.028955820569 
0.019867758028 0.01837040734 0.025087568555 0.035527426439 0.047678274907 0.061462220764 0.077576672065 0.097282177109 0.12244427638 
0.15584436533 0.20162016209 0.26586729259 0.35677054816 0.48254503098 0.64243076907 0.80725366547 0.90919255557 0.88767273453 
0.76019810044 0.5990145182 0.45728118568 0.3503423897 0.27409275287 0.22022028231 0.18153055111 0.15297770065 0.13122908695 
0.11437702853 0.10148727242 0.092663334596 0.08874717406 0.090999153298 0.10033210715 0.11684852256 0.14015587095 0.16976922834 
0.20521170561 0.24558600206 0.28912880536 0.33255767048 0.37111771561 0.39931751041 0.41289537766 0.41063738343 0.39498988823 
0.37066973879 0.34289671395 0.31570118989 0.29162296014 0.27191673028 0.2568564405 0.24622484452 0.23941391675 0.235506165 
0.2331919483 0.23074835652 0.22612820322 0.21714577228 0.20199220292 0.17978343284 0.15072523152 0.11608320034 0.077574307526 
0.036883276545 0 
Torsion 1 128 double
0 0 0.025612851195 0.034788041209 0.043799769848 0.052212656342 0.059624886399 0.06567657805 0.070118120973 
0.072983605692 0.074502822931 0.075095702428 0.075529175047 0.076353902653 0.078220548491 0.081445205587 0.086130331987 0.092247947241 
0.099261897402 0.10665962566 0.11375447832 0.11992526468 0.12473464071 0.12763501509 0.12846164654 0.12724451201 0.12371834988 
0.11785339187 0.10946022792 0.098018962351 0.082856126855 0.062922743993 0.036914336107 0.0031932443057 -0.039591401831 -0.091574665363 
-0.14992333189 -0.20596073565 -0.24534528429 -0.25504060978 -0.23336058617 -0.19143249875 -0.1433506946 -0.098474257707 -0.060345115405 
-0.029111902963 -0.0035937566794 0.017391688326 0.035034976128 0.050329502361 0.06355929824 0.075062271804 0.085008706931 0.0933650074 
0.10040038425 0.10652996828 0.11274452093 0.12083696001 0.13408481366 0.15897991334 0.21031554064 0.32512208088 0.6051106008 
1.2118816143 1.3460787822 0.65973030879 0.2707839568 0.094559354667 0.004126968196 -0.046026039465 -0.073251089867 -0.085326865097 
-0.087508348674 -0.08342069398 -0.075729741839 -0.066257811556 -0.055944819827 -0.045988346866 -0.037303714633 -0.030822133753 -0.02716184314 
-0.026312798856 -0.028530014644 -0.034722339044 -0.045985100698 -0.063360215646 -0.087883796933 -0.12099185329 -0.16446122779 -0.22083434876 
-0.29294189936 -0.38230308317 -0.48060083797 -0.56095425282 -0.58430756983 -0.53909864672 -0.4562472618 -0.37114597821 -0.30044165175 
-0.24603940159 -0.20478672995 -0.1728366403 -0.14757277786 -0.12677639514 -0.10899086322 -0.093394405014 -0.0791502767 -0.065740847214 
-0.052815187509 -0.040468817683 -0.028903812267 -0.018153544049 -0.0088256408597 -0.0011190595787 0.0049783383708 0.0091450822547 0.01158293774 
0.012657888074 0.012443188644 0.011392898414 0.010013569361 0.0084612892962 0.0067252393554 0.0051226239762 0.0038881384897 0.0026997549608 
0 0 
Abscissas 1 128 double
0 0.50359384144 1.0071874965 1.5107789875 2.0143704785 2.5179675109 3.021565045 3.5251568556 4.0287485265 
4.5323426564 5.035936961 5.5395273177 6.0431173643 6.5467145656 7.0503124745 7.5539080286 8.0575033078 8.5610954502 
9.0646871664 9.5682815043 10.07187625 10.575468379 11.079060046 11.582653833 12.086248039 12.589843223 13.093438622 
13.597023264 14.100605285 14.604196197 15.107789495 15.611400997 16.115017856 16.618606967 17.122187175 17.625775678 
18.129367068 18.632952561 19.136535838 19.640130382 20.143729488 20.647325971 21.150921312 21.654519799 22.158119755 
22.661714716 23.165307175 23.668901497 24.172496821 24.676088482 25.179678021 25.683276926 26.186881642 26.690475949 
27.194063341 27.697656271 28.201253126 28.704848132 29.208441742 29.712038309 30.215637248 30.719235076 31.222831957 
31.726418186 32.229994789 32.733579993 33.237173443 33.740770042 34.244369843 34.747966861 35.251560873 35.7551544 
36.258747374 36.762340896 37.265935091 37.76952924 38.27312333 38.776714534 39.28030155 39.783892294 40.287488703 
40.791086483 41.294686536 41.798283699 42.301875673 42.805467666 43.309059695 43.812652569 44.316247209 44.819842974 
45.323441282 45.827038911 46.330634896 46.834233325 47.337838123 47.841435474 48.345011895 48.848594594 49.352196403 
49.855794907 50.359382472 50.862971209 51.366564225 51.870158646 52.373758848 52.877357709 53.380950542 53.884544797 
54.388146388 54.891746745 55.395339771 55.898932961 56.402527267 56.906119442 57.409694756 57.913272875 58.416877276 
58.920479633 59.424058543 59.927638549 60.431233537 60.934828324 61.438417458 61.942007302 62.445605823 62.949204345 
63.452804005 63.956403756 
ParallelTransportNormals 3 128 double
-0.90718945944 -0.4207223368 0 -0.89873258025 -0.43761435967 -0.015218598088 -0.88985530134 -0.45501134407 -0.030717177254 
-0.87609522327 -0.47827328406 -0.049467640912 -0.86233514519 -0.50153522405 -0.068218104571 -0.84736729112 -0.52340244411 -0.084396168056 
-0.83229007416 -0.5451433737 -0.10034130332 -0.81061471101 -0.57201134565 -0.11873305331 -0.78877840242 -0.59900437911 -0.13718448242 
-0.76329910424 -0.62595852258 -0.15447566684 -0.73756077347 -0.65290990081 -0.17168435276 -0.70625804972 -0.68083323634 -0.18859241816 
-0.67451831253 -0.70883290695 -0.20547687358 -0.63769051402 -0.73622906944 -0.22118199584 -0.60035941911 -0.76356553464 -0.23677046184 
-0.55769155229 -0.78950321144 -0.25085064591 -0.51440064893 -0.81527758798 -0.264754747 -0.46526759885 -0.83886237687 -0.27688081037 
-0.41534080334 -0.86214967662 -0.2887653 -0.35833040209 -0.8823426654 -0.29871644305 -0.30021722032 -0.90205392977 -0.30836660141 
-0.23293091417 -0.91703440418 -0.31597178119 -0.16402811491 -0.93118121615 -0.32321659371 -0.085026631558 -0.93725773243 -0.32834493547 
-0.0040282079175 -0.94173840727 -0.33305476075 0.083471847779 -0.93388458121 -0.33618911272 0.17240405353 -0.92331376716 -0.33897642658 
0.25835875931 -0.89922448782 -0.34180704536 0.34358747731 -0.87183907395 -0.34464822294 0.41527095952 -0.8365612693 -0.3490818397 
0.48331942281 -0.79916545134 -0.35394280572 0.53453020667 -0.76230022336 -0.36025495012 0.58078548479 -0.72559115358 -0.36699419155 
0.61422795895 -0.69358303671 -0.37404835782 0.64355980816 -0.66308308732 -0.38120355881 0.66615479458 -0.63597733462 -0.38820469106 
0.68640546005 -0.6100527083 -0.39515220984 0.70476118996 -0.58342256682 -0.40238131039 0.72240458625 -0.55652721202 -0.40971626159 
0.74139449451 -0.52359019489 -0.41785842423 0.76092956483 -0.48820709102 -0.42632740242 0.78365441567 -0.43984170786 -0.43490551872 
0.80776699496 -0.38582832534 -0.44353111605 0.83407598265 -0.31052403421 -0.44788338214 0.8614098981 -0.22528459473 -0.45024154923 
0.88344008038 -0.11659305857 -0.43845172356 0.90281206403 0.0038525250097 -0.41957101043 0.90619272404 0.12903180009 -0.38152334046 
0.90097879698 0.25675521252 -0.33317432936 0.88066445446 0.36751343734 -0.27634795109 0.85160083355 0.4684419227 -0.21460973143 
0.81568798785 0.54964904903 -0.15553719969 0.7755259681 0.61862128899 -0.098118427651 0.73467422182 0.67307840939 -0.047539778954 
0.69336427847 0.71789288877 -0.0015051406433 0.65504200721 0.75290264384 0.037069570027 0.61883700995 0.78096408351 0.070357652699 
0.58802454702 0.8023104782 0.096699533656 0.56128022744 0.81859102371 0.11780118014 0.54111057854 0.83017387129 0.13301245583 
0.52621381138 0.83798916809 0.14349965786 0.51802980316 0.84224529117 0.14919737819 0.51556195442 0.8434706478 0.15081667986 
0.51875269509 0.84182288152 0.14879432703 0.52705607098 0.83757919808 0.14348167519 0.53933142935 0.83090269664 0.13556586185 
0.55541492012 0.82189373452 0.12515427119 0.57379603618 0.81079017785 0.11303835336 0.5945134198 0.79755679904 0.0991894444 
0.61692130447 0.78197135854 0.083949185677 0.64115533019 0.76384513502 0.067205940082 0.66712588052 0.74244579127 0.049155776975 
0.69507729725 0.71731277518 0.029614803433 0.72765777313 0.68384973403 0.0074175821894 0.7659363311 0.64013295338 -0.018049313727 
0.81482570227 0.56784263522 -0.045067504576 0.87704472468 0.45965730295 -0.074034482952 0.92874236149 0.28494376594 -0.061405941236 
0.96516716205 0.013657931686 0.011602629477 0.95751165166 -0.20162910408 0.11549234989 0.88290432778 -0.33186181447 0.266286208 
0.81426622224 -0.42108683426 0.39124654797 0.75552107466 -0.44234862384 0.47339225204 0.70533613836 -0.45582401898 0.54124295236 
0.67052143678 -0.45531860146 0.58342634661 0.63712729116 -0.45268915248 0.62284936355 0.60654831805 -0.44585042549 0.65680203053 
0.57847154837 -0.43824986595 0.68750402438 0.55562106547 -0.42905808672 0.71141642237 0.5351251863 -0.42000921623 0.73276572083 
0.51994448687 -0.4112829417 0.74832919024 0.50801329782 -0.40419643584 0.76060831134 0.50394195109 -0.40107616536 0.76494332493 
0.50337129477 -0.40118772795 0.76520840469 0.51192228588 -0.40972038421 0.75486857588 0.52355507283 -0.42299025655 0.73891229213 
0.5438504152 -0.44957587044 0.70716883269 0.56575303597 -0.48166691523 0.66680049441 0.59254792808 -0.53051551848 0.60017954953 
0.6175885775 -0.58291398009 0.52010303971 0.63682333518 -0.64706115436 0.39549360756 0.64908069128 -0.70584898978 0.25780826897 
0.63587611101 -0.74507952388 0.072406327869 0.61508497305 -0.77094433204 -0.11416434512 0.56308069657 -0.74181894935 -0.30554349538 
0.50899110017 -0.70347357644 -0.48641349362 0.44553505898 -0.62371559883 -0.62008047448 0.38350544115 -0.54230795738 -0.74418132562 
0.32883564531 -0.45238865483 -0.81892445171 0.27548782549 -0.36285810732 -0.88849419888 0.22998979748 -0.27563595721 -0.92734482047 
0.18530940374 -0.18886964531 -0.9632582521 0.14619851182 -0.10520837913 -0.97916434604 0.10748701117 -0.02157137511 -0.99308766337 
0.071935025676 0.061873695172 -0.99132557795 0.03673129012 0.14518267466 -0.98796513176 0.0047889044831 0.2272171681 -0.96963608614 
-0.027232997516 0.31020379134 -0.94932104158 -0.060167268655 0.40411513271 -0.90621868521 -0.092433334112 0.496757977 -0.86222576115 
-0.11556660329 0.57206345695 -0.8060608764 -0.13871696217 0.64815603111 -0.74766759769 -0.16234536408 0.74626566978 -0.62694036701 
-0.18457178434 0.84038924253 -0.50768638323 -0.1896530058 0.88576617637 -0.40644911971 -0.19473422726 0.93114311021 -0.30521185619 
-0.19511071557 0.93450527134 -0.29771077661 -0.19511071557 0.93450527134 -0.29771077661 
FrenetTangent 3 128 double
-0.41523316003 0.69979054848 0.58126982638 -0.41523316003 0.69979054848 0.58126982638 -0.42474915742 0.69926712963 0.57499011704 
-0.43968617461 0.69810881452 0.56508419811 -0.45943443308 0.6959379257 0.55189709663 -0.48326627678 0.69232719537 0.5358514349 
-0.51040789844 0.68685512122 0.51741068762 -0.54010297106 0.67914697637 0.49703939999 -0.5716592095 0.66889651718 0.47516649449 
-0.60447368511 0.65586897739 0.45215865413 -0.63803839949 0.6398894147 0.42830892791 -0.67193227647 0.62082354982 0.40383800691 
-0.70580406875 0.59855719232 0.37890619428 -0.73935122969 0.57297524914 0.35363699331 -0.7722995738 0.54394722346 0.32813836472 
-0.80438422198 0.5113152412 0.30252726745 -0.83533213474 0.47488913872 0.27694860643 -0.86484468985 0.43444869374 0.2515909278 
-0.8925801709 0.38975269273 0.2267012947 -0.91813667876 0.34056251796 0.20258877184 -0.94103723634 0.28667582524 0.17962708883 
-0.96072173525 0.22797239181 0.15824770451 -0.97654866833 0.16447448669 0.13892746888 -0.9878160045 0.096409154824 0.12216716466 
-0.99380562831 0.024266380412 0.10845052287 -0.99385098433 -0.051156055747 0.098200198117 -0.98742619359 -0.12874571362 0.091728149683 
-0.97424335234 -0.207118733 0.089172422053 -0.95433559208 -0.28471386562 0.090452155354 -0.92810362048 -0.35993484016 0.095239595212 
-0.89630369315 -0.43132384498 0.10295353517 -0.85997364103 -0.49771948853 0.11278584786 -0.82031284402 -0.55836688898 0.12374673824 
-0.77853161965 -0.61297423504 0.13472603454 -0.73570954967 -0.66169250137 0.14454927242 -0.69268077434 -0.70503926268 0.15202954627 
-0.64995333093 -0.7437890404 0.15600811198 -0.60767231633 -0.77884030587 0.15537739188 -0.56561752224 -0.81107656759 0.14910271638 
-0.52322525949 -0.84123294403 0.1362441254 -0.47962780449 -0.86977318943 0.11598175768 -0.43372731547 -0.89676919233 0.087667733575 
-0.38429241025 -0.92180672838 0.05090873153 -0.33009244521 -0.94393150313 0.005682870882 -0.27008619565 -0.96166320645 -0.047511306748 
-0.20365239718 -0.97312338942 -0.1075014888 -0.1308244335 -0.97631036303 -0.17234570676 -0.052451071008 -0.9695084269 -0.23937897843 
0.029780089711 -0.95174071209 -0.30545501013 0.11354394748 -0.9231165506 -0.36737393211 0.1962679258 -0.88491545317 -0.42237843463 
0.27554871644 -0.83936246698 -0.46855475015 0.34948648583 -0.78919735104 -0.50500172013 0.41683556324 -0.73720826757 -0.53176318362 
0.47696949587 -0.68588219651 -0.54960505139 0.52975150125 -0.63722117648 -0.55974326184 0.57537524367 -0.59270072825 -0.56360373997 
0.61422279457 -0.55332160118 -0.56264159488 0.6467675213 -0.51969287488 -0.55822136217 0.67350571518 -0.49212626188 -0.55154491566 
0.69491781636 -0.47071845636 -0.54361140841 0.7114553636 -0.45541463993 -0.53519040663 0.72352951159 -0.44606526455 -0.52681194521 
0.73151017465 -0.44246969535 -0.5187614414 0.73572613063 -0.44441910345 -0.51107604247 0.73646243057 -0.45173389594 -0.50354699444 
0.7339559039 -0.46429656439 -0.49571910537 0.72838096985 -0.48208022747 -0.4868878896 0.71981772141 -0.50516953022 -0.47609473184 
0.70819901058 -0.53376867684 -0.46210946867 0.69322508508 -0.56819062302 -0.44339417828 0.67423907731 -0.60881370486 -0.41802815623 
0.65003841195 -0.65598330338 -0.3835830662 0.61860206984 -0.70979839122 -0.3369239128 0.57670712486 -0.76964330112 -0.27396729947 
0.51946114627 -0.83320382067 -0.18955608862 0.44003589259 -0.89459096339 -0.077944989921 0.33059304634 -0.94154142576 0.064868954777 
0.18654607742 -0.95382421437 0.2354143774 0.014862294262 -0.90941311696 0.41562831341 -0.16157567042 -0.80180245187 0.57533132273 
-0.31554882048 -0.650629106 0.69073200905 -0.4328505603 -0.48700134436 0.75859744466 -0.5145772634 -0.33317344956 0.79006689116 
-0.56851403062 -0.19800545436 0.79848959732 -0.60249446095 -0.082200875282 0.79387873169 -0.62228519974 0.016636594928 0.78261379613 
-0.63163527124 0.10144513208 0.76859987594 -0.63283248679 0.17476083227 0.75430875321 -0.62721274395 0.23847212414 0.74144131247 
-0.61552497433 0.29383313276 0.73129412419 -0.59816783272 0.34153356688 0.72494831995 -0.57533001031 0.38177949429 0.723353162 
-0.54707419986 0.41436115525 0.72733393491 -0.5133785 0.43869199155 0.73755803316 -0.47414058254 0.45384382097 0.75446437567 
-0.42917314614 0.4585521018 0.77816475155 -0.37821200155 0.45121840217 0.80830540975 -0.32094981812 0.42995170255 0.84387958129 
-0.25712697153 0.39266626154 0.88300562148 -0.18671901769 0.33731768968 0.92268780455 -0.1102229428 0.26236402893 0.95865323199 
-0.029003794391 0.16747885559 0.98544893974 0.054414229068 0.054380600745 0.99703652989 0.13637091081 -0.072580713841 0.98799545275 
0.21259530461 -0.20660288703 0.955048943 0.27914925226 -0.33965657649 0.89816986423 0.33338013994 -0.46429785621 0.82053956822 
0.37436076551 -0.57515714973 0.72735704462 0.40269337915 -0.66946560102 0.62422259766 0.41991295423 -0.74667038439 0.51590352582 
0.42787572188 -0.80761298654 0.40581230958 0.42834527943 -0.8537533328 0.29601616226 0.42276356964 -0.88662060913 0.18754961917 
0.4121976652 -0.90750528417 0.080791360961 0.39737955343 -0.91733541112 -0.024191610632 0.37877656031 -0.91668755131 -0.12732733659 
0.35671259593 -0.90589764447 -0.2282664707 0.33151816829 -0.88527744235 -0.32615878674 0.30367878878 -0.85543158626 -0.4195426015 
0.27398666987 -0.81761224451 -0.50640055525 0.24363318861 -0.77400342074 -0.58443269423 0.21416484565 -0.72777609525 -0.65151774656 
0.18731263352 -0.68282544256 -0.70616102435 0.1647586186 -0.64323141018 -0.7477352142 0.14791311452 -0.61264788746 -0.77639183184 
0.13777121423 -0.59384255444 -0.79269799613 0.13777121423 -0.59384255444 -0.79269799613 
FrenetNormal 3 128 double
-0.83397615878 -0.037574188148 -0.55051970624 -0.83397615878 -0.037574188148 -0.55051970624 -0.83251447486 -0.05216719136 -0.55154168772 
-0.82980802432 -0.075021304359 -0.55298322458 -0.82560305482 -0.105452673 -0.55430977768 -0.81956177141 -0.14253343627 -0.55497992972 
-0.81133274175 -0.18522897218 -0.55446317284 -0.80052714796 -0.23233282931 -0.55242894729 -0.78678551777 -0.28261040044 -0.54872571527 
-0.7697914175 -0.33483003702 -0.54342434603 -0.74933299212 -0.38796660301 -0.53663952694 -0.72526665361 -0.44115500692 -0.52855514474 
-0.69752901035 -0.49382652664 -0.51921926131 -0.66610310101 -0.54573075764 -0.50841380685 -0.63094302006 -0.59669123783 -0.49585327682 
-0.59198575709 -0.64679524187 -0.48084173955 -0.54907993491 -0.69593105673 -0.46280794002 -0.50202046786 -0.74401624479 -0.44092547822 
-0.45054282128 -0.79065376722 -0.4145814595 -0.39437567202 -0.83516680018 -0.38335915953 -0.33330133072 -0.87660436158 -0.34709511117 
-0.26723438811 -0.91374369072 -0.30603635319 -0.1962918716 -0.94525388667 -0.26070019346 -0.12085855123 -0.96978469275 -0.21192182591 
-0.041638032193 -0.9860896149 -0.16091471546 0.040365693238 -0.99323450633 -0.10888446279 0.12385450868 -0.99065159235 -0.057179395418 
0.20729789737 -0.97825025908 -0.0073493098263 0.28907669784 -0.95650260899 0.039209970097 0.3675957044 -0.92646475993 0.080848294474 
0.44148116207 -0.88976225395 0.11583399748 0.50972773087 -0.84851439788 0.14213007063 0.57179267751 -0.80518497236 0.15725868571 
0.62757901296 -0.76231787264 0.15816460904 0.67720543736 -0.7221742022 0.14091563888 0.72048957687 -0.68604947403 0.10114785613 
0.75615591002 -0.65346714468 0.034769678836 0.78123676571 -0.62139902727 -0.059433700985 0.79195185033 -0.58464751137 -0.17606690267 
0.78696294783 -0.53830494405 -0.30152463574 0.77047820225 -0.48070174374 -0.41867549894 0.75089179949 -0.41351366102 -0.51494461606 
0.73591615201 -0.33915960212 -0.58600186134 0.72939356563 -0.25888086584 -0.63321854341 0.73143323544 -0.17283530885 -0.65964640385 
0.73982420939 -0.081044821482 -0.66790109756 0.75144282665 0.015746956178 -0.65961027255 0.76308350677 0.11571449228 -0.63585668037 
0.77200625718 0.21601103649 -0.59778388318 0.77647869362 0.31313224181 -0.54683547571 0.77584140708 0.40356248106 -0.48498189136 
0.77025653281 0.48441004468 -0.41479125144 0.76074325792 0.55364511445 -0.33874294499 0.74849003164 0.61031350676 -0.25938407045 
0.73484589388 0.65425487098 -0.17875143648 0.72097432195 0.6859223345 -0.098521967675 0.7079827313 0.70595678914 -0.019633238238 
0.69683922834 0.71490591545 0.05765953435 0.68859206152 0.71258163752 0.13441868425 0.68428086646 0.69728702893 0.21342561957 
0.68496590271 0.66342203548 0.30115264397 0.6903931057 0.5950588801 0.4114149837 0.6899823039 0.44442010249 0.57132757049 
0.60757881997 0.077739291092 0.79044581101 0.26228579677 -0.50875953851 0.81998164174 -0.075830074423 -0.79480109172 0.6021137969 
-0.23158402124 -0.85719700339 0.4599805849 -0.3008766683 -0.86347074547 0.40483515434 -0.33433613035 -0.85336338654 0.39998785288 
-0.35192641367 -0.83431171409 0.4243486339 -0.36352313671 -0.8068739115 0.46562368928 -0.37526925084 -0.76995460662 0.51608419188 
-0.39193580461 -0.72188069171 0.57032849482 -0.41689882838 -0.65999718283 0.6249792681 -0.45258315192 -0.58017881013 0.67717135119 
-0.49973910332 -0.47617154172 0.72354785016 -0.55651350577 -0.33979980321 0.75817465774 -0.61621442734 -0.16328208105 0.77046657394 
-0.66470198691 0.053913513778 0.74516078911 -0.68263670368 0.29449941421 0.66878787805 -0.65681897303 0.52248337988 0.54369104684 
-0.59198294504 0.70387658658 0.3925734882 -0.50566403083 0.82782592116 0.24291589528 -0.41365697694 0.90356484285 0.11161756226 
-0.32370059597 0.94615045972 0.004151113748 -0.23700188072 0.96824175324 -0.079611656348 -0.15134101117 0.97835421512 -0.1411344327 
-0.062754514816 0.98145838401 -0.181111323 0.033414953578 0.97945217163 -0.1988891258 0.14226063581 0.97103456893 -0.19197337689 
0.26825192755 0.95060654425 -0.15616690237 0.41361984198 0.90640397751 -0.08573479973 0.57260377347 0.81951242561 0.022897660999 
0.72416069759 0.67010894258 0.16292725106 0.8340235243 0.45746998661 0.30842498644 0.87990015726 0.21399601621 0.4242421694 
0.8711238986 -0.017495411915 0.49075152965 0.83323682852 -0.21449621707 0.50961530635 0.78650315348 -0.37540254237 0.49039343465 
0.74048277184 -0.50705754854 0.44110985829 0.69757926256 -0.61580332403 0.36629146669 0.65640926688 -0.70503510011 0.26842574759 
0.61405565962 -0.77492186689 0.14977231755 0.56707497903 -0.8235477048 0.013969469226 0.5130372378 -0.84798285925 -0.13310846348 
0.45097716593 -0.84632373341 -0.28347086988 0.38191449423 -0.81891869633 -0.42838474284 0.30852577139 -0.76868029558 -0.5603056769 
0.23411562882 -0.70035918895 -0.67430473734 0.16190324669 -0.61911288595 -0.76843124166 0.09400562556 -0.52960692745 -0.8430180572 
0.031870684674 -0.43522758221 -0.89975619539 -0.02408927091 -0.33826358991 -0.94074303121 -0.074155917684 -0.24010457224 -0.96791047843 
-0.11889353945 -0.14149475742 -0.98277340211 -0.15902239421 -0.042875276077 -0.98634354504 -0.19548694864 0.055227856519 -0.97915000729 
-0.22870923105 0.15222385041 -0.96151962382 -0.25905825068 0.2470031994 -0.933744206 -0.2865292132 0.33795885556 -0.89648470256 
-0.31081989726 0.42301312185 -0.85114680884 -0.33140362798 0.4998825557 -0.80018064577 -0.34808116719 0.5663459952 -0.74705536259 
-0.36084322286 0.62079328693 -0.69599415473 -0.36987816912 0.66247965584 -0.65139146878 -0.37553571466 0.69144020343 -0.61715749375 
-0.37891660958 0.70784709419 -0.59613311788 -0.37891660958 0.70784709419 -0.59613311788 
FrenetBinormal 3 128 double
-0.36340774536 -0.71335921431 0.59921068246 -0.36340774536 -0.71335921431 0.59921068246 -0.35567935337 -0.71295446248 0.60430797779 
-0.34364910974 -0.71205048064 0.61228212647 -0.32756617281 -0.71031692738 0.62301706646 -0.30785095188 -0.70736643552 0.63628650569 
-0.28499641993 -0.70279461461 0.6518103791 -0.25970187913 -0.69626204903 0.66915924343 -0.23275372655 -0.68753822502 0.68783493072 
-0.20501887122 -0.67655356832 0.70727825616 -0.177220393 -0.66334263538 0.72702784018 -0.1499843225 -0.64804350151 0.74668890654 
-0.1236684934 -0.63076512991 0.76605577775 -0.098317943358 -0.61145507116 0.78514729699 -0.073920726142 -0.58998388519 0.80402409259 
-0.050188512916 -0.56587334203 0.82296322758 -0.027045327701 -0.5386652673 0.84208567263 -0.0043717607253 -0.50763585374 0.86156063496 
0.017657992491 -0.47218583088 0.88132215246 0.038637655673 -0.43187218854 0.90110684401 0.057958112097 -0.3864993719 0.92046677982 
0.074830002146 -0.33630500477 0.93877548676 0.088443199428 -0.28185675964 0.95537142909 0.098044642119 -0.22410471786 0.9696207112 