# vtk DataFile Version 4.2
vtk output
ASCII
DATASET POLYDATA
POINTS 128 float
0 0 0 -0.240096 0.217398 0.085462 -0.728265 0.626426 0.256714 
-1.17391 0.921525 0.407441 -1.58227 1.1012 0.541207 -2.03238 1.23992 0.689358 
-2.5127 1.31946 0.851214 -2.99097 1.30485 1.01883 -3.45224 1.19933 1.19067 
-3.8874 1.01733 1.36682 -4.29158 0.774445 1.54617 -4.66236 0.486019 1.7275 
-5.00332 0.164379 1.91076 -5.31985 -0.179874 2.09605 -5.61717 -0.540323 2.28242 
-5.90037 -0.912304 2.46815 -6.17422 -1.29332 2.64898 -6.44341 -1.68191 2.81943 
-6.713 -2.07852 2.97191 -6.98817 -2.48359 3.09454 -7.27422 -2.89366 3.15366 
-7.5734 -3.30109 3.11105 -7.8683 -3.68081 2.95264 -8.13624 -4.00568 2.67895 
-8.3715 -4.28048 2.32366 -8.57557 -4.52248 1.93013 -8.75239 -4.74648 1.5168 
-8.90627 -4.96543 1.0913 -9.03692 -5.18677 0.658677 -9.14177 -5.41534 0.222745 
-9.2164 -5.65417 -0.213701 -9.25555 -5.90528 -0.648184 -9.25372 -6.16879 -1.07707 
-9.20576 -6.4437 -1.49615 -9.10987 -6.72746 -1.90096 -8.96633 -7.0168 -2.28711 
-8.77869 -7.30903 -2.65169 -8.5523 -7.6019 -2.99274 -8.29279 -7.8947 -3.30932 
-8.00574 -8.18763 -3.60094 -7.69475 -8.48154 -3.8657 -7.36213 -8.77753 -4.1006 
-7.0096 -9.07617 -4.30022 -6.63827 -9.37755 -4.45666 -6.24717 -9.68084 -4.55105 
-5.83591 -9.98292 -4.55724 -5.42692 -10.2606 -4.4447 -5.05681 -10.4791 -4.18437 
-4.75192 -10.6215 -3.80001 -4.52942 -10.6844 -3.34895 -4.38026 -10.6832 -2.86706 
-4.27886 -10.6452 -2.37446 -4.21028 -10.5879 -1.8796 -4.16733 -10.522 -1.38297 
-4.14508 -10.4578 -0.884574 -4.14024 -10.4052 -0.384206 -4.15154 -10.3738 0.117737 
-4.17925 -10.3722 0.620278 -4.22443 -10.4091 1.12029 -4.28866 -10.4925 1.61282 
-4.37243 -10.6278 2.09085 -4.4752 -10.8182 2.54577 -4.59394 -11.0628 2.97011 
-4.72348 -11.3573 3.35768 -4.85753 -11.695 3.70644 -4.98889 -12.068 4.01819 
-5.11105 -12.4689 4.29684 -5.21818 -12.8915 4.54816 -5.30517 -13.3306 4.77789 
-5.36753 -13.7818 4.9916 -5.4011 -14.2411 5.19432 -5.40197 -14.7045 5.3905 
-5.36675 -15.168 5.58339 -5.29261 -15.6274 5.775 -5.17743 -16.0786 5.96622 
-5.01996 -16.5171 6.15679 -4.81988 -16.9386 6.34586 -4.57799 -17.3389 6.53206 
-4.2962 -17.7143 6.71418 -3.97772 -18.0615 6.8913 -3.62659 -18.3784 7.06345 
-3.24784 -18.664 7.2318 -2.84644 -18.9177 7.39832 -2.42721 -19.14 7.56587 
-1.99473 -19.3312 7.73778 -1.55327 -19.4919 7.91796 -1.10696 -19.6226 8.11003 
-0.659763 -19.7239 8.31718 -0.215292 -19.7968 8.54147 0.223412 -19.8433 8.78333 
0.654156 -19.866 9.04222 1.07603 -19.8693 9.31624 1.48878 -19.8574 9.60341 
1.89308 -19.8354 9.90177 2.2899 -19.8079 10.2095 2.68057 -19.7797 10.5249 
3.06629 -19.7553 10.8467 3.44797 -19.7388 11.1738 3.82618 -19.7339 11.5053 
4.2009 -19.7435 11.8406 4.57173 -19.7703 12.1793 4.9376 -19.816 12.5215 
5.29723 -19.8822 12.8669 5.64908 -19.9695 13.2156 5.99172 -20.0784 13.5674 
6.32406 -20.2089 13.9217 6.64541 -20.3607 14.2777 6.95584 -20.5334 14.6338 
7.25582 -20.7263 14.9885 7.54644 -20.9391 15.3397 7.82887 -21.1718 15.6848 
8.10425 -21.4245 16.0214 8.37336 -21.6981 16.3467 8.63603 -21.994 16.6575 
8.89139 -22.3135 16.9506 9.13708 -22.6579 17.2229 9.3705 -23.0278 17.4715 
9.58898 -23.4231 17.694 9.7902 -23.8421 17.8887 9.97284 -24.2793 18.0554 
10.1366 -24.7313 18.1944 10.2841 -25.2028 18.307 10.4171 -25.6914 18.3949 
10.5329 -26.1634 18.4621 10.6336 -26.6124 18.5113 10.7408 -27.1572 18.5414 
10.8577 -27.8064 18.553 10.9152 -28.1357 18.5546 
LINES 1 129
128 0 1 2 3 4 5 6 7 8 9 10 11 12 13 14 15 16 17 18 19 20 21 22 23 24 25 26 27 28 29 30 31 32 33 34 35 36 37 38 39 40 41 42 43 44 45 46 47 48 49 50 51 52 53 54 55 56 57 58 59 60 61 62 63 64 65 66 67 68 69 70 71 72 73 74 75 76 77 78 79 80 81 82 83 84 85 86 87 88 89 90 91 92 93 94 95 96 97 98 99 100 101 102 103 104 105 106 107 108 109 110 111 112 113 114 115 116 117 118 119 120 121 122 123 124 125 126 127 

CELL_DATA 1
FIELD FieldData 2
Length 1 1 double
58.724790401 
Tortuosity 1 1 double
0.65765446305 
POINT_DATA 128
SCALARS MaximumInscribedSphereRadius float
LOOKUP_TABLE default
0.8742 0.888609 0.903018 0.945507 0.99054 1.07898 1.16859 1.12394 1.07279 
1.19338 1.32479 1.55879 1.80097 1.87209 1.92624 1.85038 1.75886 1.6619 
1.56416 1.52041 1.48561 1.38188 1.26525 1.24247 1.23791 1.19175 1.13667 
1.32052 1.56163 1.66089 1.72231 1.67926 1.60545 1.65908 1.75378 1.74631 
1.70302 1.61542 1.51094 1.41823 1.33036 1.34508 1.40567 1.5371 1.70271 
1.84329 1.97094 2.00509 1.98943 2.00099 2.02701 2.08437 2.1594 2.24221 
2.32973 2.28741 2.16035 2.03567 1.91267 1.86 1.86 1.8847 1.92907 
2.05428 2.24788 2.32484 2.29673 2.19686 2.02796 1.86782 1.71668 1.67432 
1.75184 1.73831 1.61753 1.51743 1.44337 1.48842 1.69359 1.8235 1.84525 
1.83804 1.78627 1.71825 1.62342 1.60364 1.71709 1.80744 1.85367 1.88415 
1.88218 1.88101 1.88166 1.90464 1.98169 2.04406 2.06767 2.0649 1.98597 
1.94209 2.00945 2.04701 1.98037 1.90344 1.78659 1.72424 1.8975 2.04433 
2.06274 2.08239 2.10888 2.15184 2.29922 2.43206 2.45732 2.4885 2.57164 
2.6537 2.7243 2.7892 2.77762 2.76196 2.67093 2.58249 2.58792 2.60084 
2.69542 2.79 
TEXTURE_COORDINATES TCoords 2 float
0 0 0.00787402 0 0.015748 0 0.023622 0 0.0314961 
0 0.0393701 0 0.0472441 0 0.0551181 0 0.0629921 0 
0.0708661 0 0.0787402 0 0.0866142 0 0.0944882 0 0.102362 
0 0.110236 0 0.11811 0 0.125984 0 0.133858 0 
0.141732 0 0.149606 0 0.15748 0 0.165354 0 0.173228 
0 0.181102 0 0.188976 0 0.19685 0 0.204724 0 
0.212598 0 0.220472 0 0.228346 0 0.23622 0 0.244094 
0 0.251969 0 0.259843 0 0.267717 0 0.275591 0 
0.283465 0 0.291339 0 0.299213 0 0.307087 0 0.314961 
0 0.322835 0 0.330709 0 0.338583 0 0.346457 0 
0.354331 0 0.362205 0 0.370079 0 0.377953 0 0.385827 
0 0.393701 0 0.401575 0 0.409449 0 0.417323 0 
0.425197 0 0.433071 0 0.440945 0 0.448819 0 0.456693 
0 0.464567 0 0.472441 0 0.480315 0 0.488189 0 
0.496063 0 0.503937 0 0.511811 0 0.519685 0 0.527559 
0 0.535433 0 0.543307 0 0.551181 0 0.559055 0 
0.566929 0 0.574803 0 0.582677 0 0.590551 0 0.598425 
0 0.606299 0 0.614173 0 0.622047 0 0.629921 0 
0.637795 0 0.645669 0 0.653543 0 0.661417 0 0.669291 
0 0.677165 0 0.685039 0 0.692913 0 0.700787 0 
0.708661 0 0.716535 0 0.724409 0 0.732283 0 0.740157 
0 0.748031 0 0.755906 0 0.76378 0 0.771654 0 
0.779528 0 0.787402 0 0.795276 0 0.80315 0 0.811024 
0 0.818898 0 0.826772 0 0.834646 0 0.84252 0 
0.850394 0 0.858268 0 0.866142 0 0.874016 0 0.88189 
0 0.889764 0 0.897638 0 0.905512 0 0.913386 0 
0.92126 0 0.929134 0 0.937008 0 0.944882 0 0.952756 
0 0.96063 0 0.968504 0 0.976378 0 0.984252 0 
0.992126 0 1 0 
FIELD FieldData 7
Curvature 1 128 double
0 0.051359395211 0.096858162663 0.14061112541 0.18062779758 0.21392365642 0.23716482323 0.24787683577 0.2456357314 
0.23239625806 0.21180347793 0.18804885287 0.1651115914 0.1466829802 0.13634545796 0.13707284249 0.14978564455 0.17264443624 
0.20186059965 0.23241480164 0.25836665711 0.27390457128 0.2753507666 0.26295450543 0.24070405385 0.21445845207 0.18970902443 
0.17035150867 0.15826767785 0.15341464349 0.15426854685 0.1587104618 0.16476842591 0.17109628617 0.17706705954 0.18286582597 
0.18937799528 0.19795471295 0.21046423109 0.22898630096 0.25574134643 0.2927671904 0.34116833037 0.39942467724 0.46071561392 
0.511082751 0.53267698214 0.51415165495 0.45977294735 0.38607138066 0.31044360148 0.24385368897 0.19100953318 0.15345783012 
0.13182779768 0.12550209695 0.13121177897 0.14393333809 0.15899610383 0.17282468761 0.18291148869 0.18771888904 0.18673865048 
0.18055504781 0.17058726137 0.15879923087 0.14724736311 0.13787128602 0.13206739991 0.13046663816 0.13281062525 0.13814431715 
0.14518359771 0.15263155159 0.15936753232 0.16456557571 0.16760988448 0.16826711395 0.1665354268 0.16269466969 0.15717261229 
0.15055055107 0.14331451402 0.13579021292 0.12829373791 0.1208600961 0.11323866808 0.10528824383 0.09671102016 0.087463594843 
0.077534839736 0.067274979418 0.057175385115 0.048169233649 0.041475448473 0.038524360356 0.039877329528 0.044618244119 0.051145300387 
0.058226425443 0.065076170595 0.071316406759 0.07668238822 0.08125624549 0.085091622616 0.088403280058 0.091473261766 0.094603339218 
0.098052201167 0.10203855344 0.10660221449 0.11161201451 0.11683702986 0.12185521459 0.12618374298 0.12919374159 0.13040565002 
0.12932549298 0.12569045993 0.1193483172 0.11037738318 0.098960480072 0.085391900721 0.070039172308 0.053217434223 0.035352027643 
0.016760574446 0 
Torsion 1 128 double
0 0 0.01165650681 0.014879132462 0.016910661164 0.016909423646 0.013746442756 0.0057787438154 -0.0095223810126 
-0.035846430689 -0.078412745204 -0.14377168752 -0.23704542833 -0.35157914172 -0.44973507067 -0.47016373578 -0.39794260473 -0.28606554179 
-0.18272644437 -0.10168111782 -0.039220820979 0.012292588167 0.060171692757 0.1103288048 0.16691001684 0.23071185275 0.29567448626 
0.34665488164 0.36452999352 0.34178387708 0.29154632444 0.23497496948 0.18682036235 0.15255648785 0.13202478304 0.12248918966 
0.1202168442 0.12114386644 0.12112269019 0.11727543154 0.10857608272 0.09613368035 0.082584941518 0.070607467727 0.062450388019 
0.059707507236 0.06367285236 0.075853834063 0.098587589871 0.13568849947 0.19279190026 0.27764466046 0.39641688399 0.53669962186 
0.63775744337 0.62028181937 0.50297766633 0.37327596599 0.27671955052 0.21691984402 0.18550489912 0.17502146035 0.18092747757 
0.20074425893 0.23292464604 0.27495913508 0.32156247494 0.36199934849 0.38241732184 0.37344875574 0.33783385165 0.28821407202 
0.23780500494 0.19461280251 0.16175889883 0.13910983972 0.1260602459 0.12155286767 0.12399808276 0.13204689086 0.14426089637 
0.1585248503 0.17247762001 0.18431660841 0.19233724718 0.1961256442 0.19670155029 0.19643414913 0.1992890791 0.20928221943 
0.23305136215 0.27872194634 0.35825544322 0.4792961549 0.6207922051 0.68700543766 0.60384862544 0.44467256506 0.30487254632 
0.20853577072 0.14790668259 0.11124958875 0.09174773651 0.083925222561 0.083600846624 0.087959524045 0.093898765044 0.098772589858 
0.10027439042 0.097111650046 0.089287470815 0.078100810202 0.065118036111 0.052155722631 0.040604430023 0.030892864474 0.023515687029 
0.018410873608 0.014950550752 0.012807984332 0.011361956866 0.01031329771 0.009353606609 0.0080487558697 0.00640297278 0.0041725410516 
0 0 
Abscissas 1 128 double
0 0.50288183918 1.0057636784 1.5086453199 2.0115269435 2.5144101963 3.017293493 3.5201749069 4.0230562296 
4.5259365102 5.0288167253 5.5317007706 6.0345851213 6.5374668395 7.0403482965 7.5432276955 8.0461068467 8.5489919201 
9.0518778392 9.5547610237 10.057643755 10.560524084 11.063403964 11.566287076 12.069170816 12.572052323 13.074933352 
13.577815409 14.080697714 14.583579081 15.086460197 15.589343983 16.092228556 16.595110378 17.097991314 17.600872065 
18.103752752 18.606632166 19.109511096 19.612392446 20.115274796 20.618156165 21.121037097 21.623919765 22.126803271 
22.629678501 23.132549459 23.635429145 24.138313481 24.641198483 25.144083839 25.64696531 26.149844589 26.652728217 
27.155614483 27.658497641 28.16137877 28.664258995 29.167138586 29.6700241 30.172914049 30.675797686 31.178676295 
31.681552883 32.184427761 32.687315733 33.1902155 33.693097437 34.195962217 34.698834026 35.201713074 35.704611255 
36.207530522 36.71041396 37.213255202 37.716122617 38.219022984 38.721913632 39.224791215 39.727666952 40.230540036 
40.733418386 41.236304837 41.739187246 42.242062986 42.744942989 43.247830558 43.75071588 44.253596905 44.75647874 
45.259362244 45.762245485 46.265128139 46.768013005 47.270903224 47.773791292 48.27667368 48.779549862 49.282408126 
49.785273217 50.288159969 50.791044761 51.293922696 51.79680296 52.299692251 52.802580894 53.305466733 53.808352461 
54.311237654 54.814121425 55.316997353 55.819877931 56.322788008 56.825692893 57.328559392 57.831426488 58.334298824 
58.837171131 59.340043123 59.84291605 60.345801534 60.84868773 61.351587077 61.854485035 62.357332485 62.860182479 
63.363060195 63.865937912 
ParallelTransportNormals 3 128 double
0.33212466646 0 0.94323549866 0.32613674409 0.0041210291714 0.94528095387 0.32014882172 0.0082420583428 0.94732640909 
0.31898021355 0.0088385750856 0.94771982709 0.31824828775 0.0091157326149 0.94796355252 0.3286243707 0.0086560321515 0.94435199411 
0.33930028323 0.008176442271 0.94063637312 0.35998783109 0.014561021783 0.93253873918 0.38116051154 0.021278217508 0.92422876658 
0.4016616654 0.034758917767 0.9147399178 0.42212054074 0.048665440355 0.90517684835 0.43645081519 0.062571806527 0.89729938687 
0.45029250518 0.076478160228 0.88955630547 0.45555802385 0.082776083443 0.88631627946 0.459972948 0.088319393776 0.88352287167 
0.45149583935 0.07629400198 0.88881357662 0.44146665229 0.062153505158 0.89507753204 0.40373549429 0.0073743447974 0.91170762441 
0.36204869639 -0.053207721063 0.92981792572 0.25856137377 -0.19626325808 0.92592240142 0.14483767341 -0.35297935233 0.91838192517 
0.02140035444 -0.51010569606 0.83026639642 -0.10385569751 -0.66730885301 0.72706436784 -0.16259377798 -0.73924385515 0.64497915483 
-0.20841877849 -0.79462581941 0.56699333213 -0.22455678979 -0.81563135685 0.53236535962 -0.23432799882 -0.8292643746 0.50703610234 
-0.23676287998 -0.83303052138 0.49999422397 -0.23743927622 -0.83443162341 0.49733574837 -0.23718360035 -0.83257534762 0.50053256222 
-0.23667931979 -0.82985025558 0.50529111406 -0.23695620543 -0.82640800973 0.51074236019 -0.23746309555 -0.82275460704 0.51639756138 
-0.23878470239 -0.81923610731 0.52134343195 -0.24036886742 -0.81576108266 0.52606070704 -0.24335586175 -0.81135322449 0.53143354742 
-0.24683474004 -0.8066182803 0.53703625328 -0.25390070723 -0.79889565291 0.54505537935 -0.26233190225 -0.79003592845 0.55399418269 
-0.27756165221 -0.7759089742 0.56587823312 -0.29559894327 -0.75960685709 0.57897855706 -0.32720330694 -0.73333345866 0.59394168173 
-0.36487538977 -0.7026005179 0.60973792288 -0.43138428838 -0.65287351369 0.61536894783 -0.51180612133 -0.5939824201 0.6160955483 
-0.61259561045 -0.52982935298 0.56972128538 -0.72390120687 -0.46295945495 0.49902818436 -0.79736902492 -0.42772890171 0.41315394548 
-0.85068202871 -0.40935148163 0.31919326424 -0.87775427334 -0.40457547779 0.25119237803 -0.89087821655 -0.40702932016 0.19699044648 
-0.89809055802 -0.41088457541 0.1523909355 -0.90196740944 -0.41553054677 0.11320937717 -0.90384213971 -0.41990984904 0.071193782719 
-0.90450251946 -0.42412740797 0.027459254705 -0.90285591621 -0.42572969832 -0.025383389293 -0.89970381674 -0.42562531075 -0.0841698283 
-0.892611217 -0.4179341175 -0.15320990917 -0.88275835434 -0.40492847761 -0.22943251649 -0.86849335606 -0.38057237698 -0.3074668383 
-0.85092494711 -0.34771807131 -0.38685760911 -0.83257083791 -0.30882225121 -0.45476283517 -0.81359086497 -0.26511395354 -0.51351904287 
-0.79880571573 -0.22751737298 -0.55550683103 -0.78756948066 -0.19509144104 -0.58330816316 -0.78127806184 -0.17583140337 -0.59885425888 
-0.77944135235 -0.16843231845 -0.60335979955 -0.77985634769 -0.17472355727 -0.60077586848 -0.78243794939 -0.19418772271 -0.59137039742 
-0.78365031733 -0.22536684534 -0.57744107144 -0.78345252198 -0.26861111193 -0.55885266219 -0.77858231096 -0.31950610794 -0.53722905396 
-0.76856241488 -0.37883332611 -0.51226021279 -0.75204573431 -0.44107086748 -0.48558637348 -0.72787788462 -0.50673585438 -0.45690458252 
-0.69717108646 -0.57137132007 -0.42781604689 -0.65823142974 -0.63471056782 -0.39821539968 -0.61445460948 -0.69411515945 -0.3693555528 
-0.5641745209 -0.74822984839 -0.34149166632 -0.51169728996 -0.79715715575 -0.31483919698 -0.45606319197 -0.83863120274 -0.28992729891 
-0.39997775646 -0.87546450415 -0.26573324444 -0.34319802395 -0.90515890043 -0.24264345592 -0.28660546687 -0.9312227228 -0.21938537777 
-0.23032183245 -0.95129448422 -0.19584954692 -0.17505964261 -0.96835687148 -0.17166341328 -0.12161038075 -0.98007802071 -0.14632307887 
-0.071240243931 -0.98931644105 -0.12112671417 -0.026754810878 -0.99380996674 -0.096205498757 0.012704276751 -0.99690164517 -0.073193407852 
0.041801373511 -0.99710336533 -0.054117045399 0.065704945027 -0.99704835733 -0.038115687367 0.078024346881 -0.99642071659 -0.028973133563 
0.085887718363 -0.99603115505 -0.023195872505 0.082957207561 -0.99621829486 -0.025570390207 0.076672415616 -0.99648252238 -0.030869240786 
0.061531870376 -0.99695027181 -0.043888723414 0.044212653936 -0.9970476746 -0.059024726916 0.020601117888 -0.99607546237 -0.080273550835 
-0.0040916391376 -0.99437071825 -0.10279150251 -0.032214771202 -0.99034188014 -0.1293359985 -0.06059601664 -0.98545507699 -0.15650898761 
-0.08988002998 -0.97756748662 -0.18588017128 -0.11892119108 -0.96889530716 -0.21543975015 -0.14702095972 -0.95718174636 -0.2457296242 
-0.17474428645 -0.94481211869 -0.27598755107 -0.20084057923 -0.92960687925 -0.30610739782 -0.22676554269 -0.91373426774 -0.33625116997 
-0.25185808547 -0.89461916187 -0.36651118605 -0.27717252996 -0.87455089625 -0.39705907084 -0.30371126474 -0.84922379696 -0.42919520317 
-0.33079944681 -0.82243634964 -0.46181369439 -0.36137333021 -0.78638443426 -0.49749227708 -0.39239859136 -0.74856310595 -0.53339050835 
-0.42676105003 -0.69765987325 -0.57091268044 -0.46096695761 -0.64552316243 -0.60795669746 -0.49379785575 -0.58255264645 -0.64080101383 
-0.52601322361 -0.51940868237 -0.67277975832 -0.55165224235 -0.45441159224 -0.69551069958 -0.57669068442 -0.38998889781 -0.71752555022 
-0.59365928607 -0.33328425504 -0.72991842018 -0.61025904802 -0.27735478758 -0.74193685666 -0.62004805112 -0.23573921391 -0.74704124292 
-0.6297613628 -0.19428029154 -0.75205557984 -0.63672155187 -0.15851924328 -0.75379455404 -0.64309660388 -0.12576459533 -0.75538733418 
-0.64309660388 -0.12576459533 -0.75538733418 -0.64309660388 -0.12576459533 -0.75538733418 
FrenetTangent 3 128 double
-0.88708764382 0.33910570975 0.31318178394 -0.88708764382 0.33910570975 0.31318178394 -0.89667527417 0.30665078881 0.31927847786 
-0.90960397105 0.25448415781 0.32841807087 -0.92247613801 0.18370761866 0.33954275967 -0.93128130569 0.096694040259 0.35123409892 
-0.93222741433 -0.0025247738978 0.36186416441 -0.92274536569 -0.10840445169 0.36985059815 -0.90226332525 -0.21471634844 0.37392215984 
-0.87233783365 -0.31577429091 0.37324697077 -0.83607273725 -0.40747628096 0.36734923232 -0.79717247107 -0.487722961 0.35586846542 
-0.75908441455 -0.55619033271 0.33829449506 -0.72447181306 -0.61374263681 0.31378426959 -0.69500269512 -0.66178137521 0.28109903095 
-0.67132372959 -0.70168802756 0.23865951075 -0.65309439174 -0.73440216911 0.18471916384 -0.63901402912 -0.76013725641 0.11769631264 
-0.62687032302 -0.77825864551 0.036702572198 -0.61370214017 -0.7874233008 -0.057742778856 -0.5962114372 -0.78610481221 -0.16300658381 
-0.57148793552 -0.77347964884 -0.2740999314 -0.53782948196 -0.75033189855 -0.38437155249 -0.49518168117 -0.71938774517 -0.48711022852 
-0.44487321396 -0.68474088181 -0.57725016092 -0.38882091864 -0.65070598712 -0.65222696322 -0.32873190184 -0.62078972786 -0.7117270899 
-0.26569677087 -0.59719485793 -0.75681142144 -0.20018290014 -0.58083075885 -0.78902625816 -0.13226565442 -0.57157892888 -0.80981684641 
-0.061926534675 -0.56861294281 -0.82027094644 0.010700869061 -0.5706952824 -0.82109219095 0.085185396584 -0.57642623497 -0.81269689543 
0.16077394447 -0.58445129594 -0.79534170107 0.23647583174 -0.59361953822 -0.76921715064 0.3112295722 -0.60307598761 -0.73446273327 
0.38409263716 -0.6122688075 -0.69108592334 0.45434466874 -0.6208658619 -0.63882431349 0.52150086258 -0.62860165843 -0.57697210101 
0.58519266397 -0.63506461937 -0.50422462778 0.64488007932 -0.63944810469 -0.41861175891 0.69941728174 -0.64027363535 -0.31759272329 
0.74647407865 -0.63512211312 -0.19848514134 0.78193423413 -0.62051608183 -0.059486516881 0.7996984506 -0.59227182099 0.098470697002 
0.79272585612 -0.54681480837 0.26940542383 0.75598420478 -0.48351919858 0.44124490561 0.69018197727 -0.40670984287 0.59852814634 
0.60293528275 -0.32506067094 0.72856338436 0.50556012276 -0.24822346164 0.82631354543 0.40828039709 -0.18351485034 0.89422000484 
0.31758007335 -0.1348634532 0.93859189534 0.23625325947 -0.103583915 0.96615463045 0.16465197224 -0.089565298659 0.98227683741 
0.10191434428 -0.09209404356 0.99052115251 0.046791769464 -0.11022636753 0.99280445114 -0.0018637203572 -0.14284129438 0.98974385129 
-0.044837742769 -0.18852426814 0.98104443179 -0.082439429347 -0.24540356182 0.96590932925 -0.1144918826 -0.31102480413 0.94348035488 
-0.14041681619 -0.38237511736 0.91327563602 -0.15941268451 -0.45609441454 0.8755372528 -0.17066916313 -0.5288327394 0.83138918113 
-0.17355595109 -0.59766396074 0.78273630418 -0.16772831579 -0.66039312862 0.73194817286 -0.15313440014 -0.71566206667 0.68145261158 
-0.12995978904 -0.76284690837 0.63338380752 -0.098542855842 -0.80184038402 0.58935668666 -0.059315714302 -0.83280231136 0.5503834629 
-0.012784555841 -0.85594428005 0.51690999659 0.040451453429 -0.87139602227 0.48890965657 0.099652113029 -0.87915522315 0.46599951714 
0.16388418622 -0.87910710347 0.44756303928 0.23198331616 -0.87109407641 0.43287278855 0.30254675645 -0.8550166492 0.42120302676 
0.37398000779 -0.83093574952 0.41192806889 0.44457715086 -0.79916256245 0.40458664795 0.51263954225 -0.76029877287 0.39893166796 
0.57661237659 -0.715219556 0.39494196268 0.63519063474 -0.66502354195 0.39278053184 0.68739211439 -0.61094347596 0.39273419798 
0.73258319986 -0.55424502243 0.39513834335 0.77045637308 -0.49615137301 0.40028838634 0.80096943628 -0.4378246515 0.40835956788 
0.82430736069 -0.38033006203 0.41936430349 0.84084243441 -0.32462495364 0.4331312041 0.85108544662 -0.27162270001 0.4493046532 
0.85568159313 -0.22218773791 0.4673773853 0.85539341259 -0.17712799134 0.48675228236 0.85107234641 -0.13718142726 0.50681073114 
0.84362180237 -0.10298493218 0.52696902975 0.83393689192 -0.075045815953 0.54673337726 0.82284094492 -0.053716387279 0.56572725682 
0.81102447836 -0.039186287895 0.58369832134 0.7990039408 -0.031482723993 0.60050107467 0.78710128164 -0.030492086248 0.61606964307 
0.77544622198 -0.035950956212 0.6303893127 0.76400458147 -0.047483521956 0.64346119902 0.75261890921 -0.064612877872 0.65527853124 
0.74106133598 -0.086778692629 0.66580594381 0.72908740409 -0.11337006914 0.67496576551 0.71648516342 -0.14375240978 0.68263039434 
0.70311067373 -0.1772827478 0.68862631943 0.68890891348 -0.21336139993 0.69273474141 0.67391151974 -0.25147194938 0.69469786399 
0.65821970434 -0.29117943079 0.69423436957 0.64196924865 -0.33216029641 0.69104632354 0.62528724093 -0.37419575319 0.68483093142 
0.60825439074 -0.41714704047 0.67528878472 0.59086920529 -0.46092373527 0.6621351014 0.57303205792 -0.50543292737 0.64511380122 
0.55455466905 -0.55051154894 0.62402416101 0.53518604006 -0.59588591754 0.59874525118 0.5146560476 -0.64113699105 0.56927367002 
0.49273881155 -0.6856847903 0.5357656502 0.46932559794 -0.72879874813 0.4985838624 0.44447210801 -0.76966077677 0.45833048546 
0.418437758 -0.80745468333 0.41584465494 0.39169438501 -0.8414610469 0.37218115924 0.36488962838 -0.87115122206 0.32855913838 
0.33879638044 -0.89624551633 0.28628829362 0.31423831946 -0.91673341195 0.24668629877 0.2920274775 -0.9328432624 0.21100568756 
0.27290242475 -0.94498268264 0.1803662831 0.25749210167 -0.95364967958 0.15572445604 0.24629137639 -0.95934430118 0.13783711295 
0.23965010371 -0.96248436477 0.12724651416 0.23965010371 -0.96248436477 0.12724651416 
FrenetNormal 3 128 double
-0.29504475745 -0.93832211212 0.18027813234 -0.29504475745 -0.93832211212 0.18027813234 -0.262941913 -0.94914722246 0.17315051396 
-0.21155075993 -0.96400443414 0.16106435646 -0.14217104883 -0.9793663981 0.14362747353 -0.057419828069 -0.99104091819 0.12058549587 
0.038369622818 -0.99502829643 0.091904631817 0.13923842856 -0.98858042378 0.057631638259 0.2383010682 -0.97103511435 0.01741859922 
0.32869626821 -0.94394687426 -0.030381932658 0.40423358168 -0.9102505925 -0.089660862625 0.45902921 -0.87248870466 -0.16749819284 
0.48613543343 -0.82992726994 -0.27366597702 0.4761162535 -0.77473113815 -0.4160588621 0.4207192953 -0.69134402924 -0.58739995557 
0.32762195516 -0.56978282315 -0.753665303 0.22955733651 -0.42444430169 -0.87587125995 0.16063787822 -0.28151791755 -0.94601434142 
0.13322682811 -0.15348685908 -0.97912838605 0.1438474039 -0.039601297833 -0.98880719132 0.18437678165 0.063540185454 -0.98079959585 
0.24682150408 0.15653391232 -0.95633481554 0.32460361056 0.23647034766 -0.91581344754 0.41325692259 0.29814711546 -0.86042257843 
0.51046914637 0.33572661329 -0.79164947529 0.61517826923 0.34362720727 -0.70956045514 0.72441888804 0.31776185639 -0.61175540642 
0.82954485301 0.25834437164 -0.49508940859 0.91637336648 0.17396148509 -0.36055132078 0.97272299284 0.082224698396 -0.21690799473 
0.99707387153 0.0016614160644 -0.076426006101 0.99696058963 -0.057281152587 0.052805797885 0.98114867219 -0.093476811628 0.16914304227 
0.95511237427 -0.11102104495 0.27465374584 0.92093966589 -0.11544777677 0.37221222794 0.87873680781 -0.11167025896 0.46405966843 
0.82780070629 -0.10314631376 0.55145881861 0.76734403441 -0.091496048139 0.63467440946 0.69686690065 -0.076411959289 0.71311831785 
0.6162687615 -0.055836400443 0.78555401469 0.52542979905 -0.026826360765 0.85041394194 0.42375671469 0.013662305655 0.90567300289 
0.30974018531 0.067652262817 0.94841140279 0.18147499059 0.13530527048 0.97404276681 0.038379576848 0.2140995949 0.97605756569 
-0.11651809285 0.29788042463 0.94746545407 -0.27505093706 0.37704424908 0.88441201725 -0.42574349601 0.4405933895 0.7903290079 
-0.55890179949 0.47956563074 0.67649507341 -0.67132431749 0.48843080632 0.55745762905 -0.76655437708 0.46299262924 0.44500810357 
-0.85094266013 0.39619912245 0.34485191683 -0.92680774456 0.27468141885 0.2560810863 -0.98163369456 0.082408888347 0.17205831807 
-0.98074254113 -0.17606030898 0.084538959124 -0.89563586767 -0.44473033086 -0.0071641720103 -0.75270634161 -0.65140347834 -0.095428882958 
-0.60403746336 -0.77706708811 -0.17693355658 -0.47497928035 -0.84237491593 -0.25455683896 -0.36604823696 -0.86969403009 -0.33112079707 
-0.2695481875 -0.87280923833 -0.40687566664 -0.17771360236 -0.85913237442 -0.4799056561 -0.083988711841 -0.83288986968 -0.54702866586 
0.016836991012 -0.79648269896 -0.60442685743 0.12920076465 -0.7507879662 -0.64778437171 0.2559464677 -0.69477863749 -0.67214139179 
0.39687145399 -0.62541843616 -0.67182202161 0.54578135926 -0.53876842926 -0.64175640824 0.6891175937 -0.43306162489 -0.58101167897 
0.80996786713 -0.31199673396 -0.49659852216 0.89662916161 -0.18427128043 -0.40261674302 0.94767996168 -0.058882050542 -0.31374447304 
0.96921389567 0.058977819421 -0.23905238185 0.96899758269 0.16805824898 -0.18110800559 0.95312260066 0.26918616468 -0.13818870021 
0.92541355389 0.36365794373 -0.10659575147 0.88805005071 0.45229820999 -0.082422306928 0.84221075114 0.53563748691 -0.06142909151 
0.78857584991 0.6136312352 -0.040060405951 0.7275716459 0.68585968829 -0.015361902892 0.6594500738 0.75159906435 0.014981543172 
0.58439198605 0.80977874477 0.052386936878 0.50275201981 0.85897033182 0.097007090624 0.41529361582 0.8976008488 0.14779691774 
0.32326147063 0.9243087201 0.2028679658 0.22852782847 0.93829001407 0.25958983244 0.13309505296 0.93943908419 0.31581626617 
0.039059258352 0.92829272083 0.3697931838 -0.052691799867 0.90508393551 0.42195573691 -0.14179793479 0.8693443663 0.47342762749 
-0.22953462541 0.81806617824 0.52733441358 -0.31784888523 0.74456789248 0.58701851729 -0.40929387769 0.63459507168 0.65556663787 
-0.5022870083 0.46486415588 0.72911527064 -0.58231182115 0.20862841284 0.78573986045 -0.61473815337 -0.12084222757 0.77941911628 
-0.58057791874 -0.43307492202 0.68947472194 -0.51209931014 -0.65129512972 0.5599722766 -0.44916125373 -0.77806818771 0.43916291216 
-0.40533987113 -0.84835264371 0.34058388217 -0.37986263669 -0.88737835307 0.26127387115 -0.36755812499 -0.90948514783 0.19426216982 
-0.36408844382 -0.9216036783 0.13448518586 -0.36480776408 -0.92789321437 0.077003103765 -0.36698128973 -0.93002720514 0.019342458248 
-0.36818082164 -0.92887120709 -0.040511272599 -0.36722759716 -0.92439128254 -0.10317290657 -0.36373863467 -0.9161395152 -0.16847134575 
-0.35842795126 -0.90343513388 -0.23523257136 -0.35275590042 -0.88571741643 -0.30177463935 -0.34861197685 -0.86273538399 -0.36627496066 
-0.34773595261 -0.83458946781 -0.42724715034 -0.35121931305 -0.80159423531 -0.48383021408 -0.35953128246 -0.76413877891 -0.5355643598 
-0.37219170208 -0.72260627054 -0.58250623574 -0.38823765442 -0.6774370719 -0.62478039126 -0.40655903618 -0.62923875592 -0.66239590741 
-0.42556422182 -0.57878852955 -0.69562844333 -0.44411328191 -0.5271676022 -0.72447064262 -0.46115392537 -0.47566706524 -0.74905133346 
-0.47600008608 -0.42574536605 -0.76952245018 -0.48835467984 -0.378927226 -0.78608133426 -0.49803306786 -0.33667095929 -0.79913436198 
-0.50528715108 -0.30033435566 -0.80900195906 -0.51043875576 -0.27108042465 -0.8160684285 -0.51387481517 -0.24984026374 -0.82067808363 
-0.51642893226 -0.23736241882 -0.82277593551 -0.51642893226 -0.23736241882 -0.82277593551 
FrenetBinormal 3 128 double
0.354998737 0.067519860166 0.93242531348 0.354998737 0.067519860166 0.93242531348 0.35613902214 0.071308090828 0.93170819095 
0.35758480368 0.077027685763 0.93069857838 0.35892223067 0.08421976683 0.92956003744 0.35974726268 0.092131216471 0.92849003546 
0.35983304464 0.099560608783 0.92768953059 0.35937953491 0.10467674321 0.92730207016 0.35935148921 0.10482221337 0.9272965064 
0.36191914463 0.096181577099 0.92723440239 0.37091453122 0.073531893068 0.92575130096 0.392183931 0.029829072257 0.91940306216 
0.43297019753 -0.043278636964 0.90036868428 0.49845150741 -0.15202512733 0.85348371714 0.58306648706 -0.28998076602 0.7589101574 
0.66482200971 -0.42776330654 0.61239713339 0.72164474967 -0.52962296851 0.44578959891 0.75223436685 -0.58560994998 0.30200073478 
0.76764849403 -0.60889676037 0.19990128772 0.77632313346 -0.61513923836 0.13757219883 0.78136875068 -0.61481856596 0.10705609002 
0.78261145192 -0.61418756673 0.10145416791 0.77805651745 -0.61731986579 0.11637971881 0.76420796813 -0.62736717291 0.14965497585 