# vtk DataFile Version 4.2
vtk output
ASCII
DATASET POLYDATA
POINTS 129 float
0 0 0 -0.222262 0.0206988 0.29193 -0.627651 0.0576536 0.813573 
-0.966178 0.0851702 1.21774 -1.28306 0.102519 1.53953 -1.64887 0.111524 1.8518 
-2.05623 0.110256 2.16058 -2.47148 0.0950727 2.4468 -2.89384 0.0617209 2.70686 
-3.33067 0.00582535 2.94173 -3.77852 -0.0766344 3.15119 -4.2304 -0.189157 3.33516 
-4.6814 -0.332682 3.4971 -5.12749 -0.50705 3.64165 -5.56529 -0.711552 3.77155 
-5.99187 -0.944998 3.88885 -6.40591 -1.2043 3.99657 -6.8069 -1.48557 4.09801 
-7.19512 -1.78545 4.1955 -7.57128 -2.10092 4.29081 -7.93635 -2.42944 4.38516 
-8.2914 -2.76872 4.47948 -8.63745 -3.11705 4.57424 -8.97542 -3.47304 4.66964 
-9.30598 -3.83578 4.76556 -9.62961 -4.20467 4.86164 -9.94651 -4.57946 4.95729 
-10.2567 -4.96016 5.05174 -10.5597 -5.34708 5.14398 -10.8549 -5.74082 5.23284 
-11.1411 -6.1422 5.31692 -11.4166 -6.55228 5.39463 -11.6792 -6.97222 5.4641 
-11.9259 -7.40331 5.52324 -12.1531 -7.84648 5.56984 -12.3568 -8.30234 5.60159 
-12.5325 -8.77064 5.61631 -12.6756 -9.25021 5.612 -12.7818 -9.73876 5.58725 
-12.8477 -10.2328 5.54133 -12.872 -10.7283 5.47431 -12.8554 -11.2209 5.38725 
-12.8001 -11.7069 5.28145 -12.7098 -12.1835 5.15849 -12.5888 -12.6488 5.0199 
-12.4424 -13.1021 4.86709 -12.2754 -13.5434 4.70126 -12.0921 -13.9734 4.52323 
-11.8962 -14.3927 4.33379 -11.6913 -14.8027 4.13365 -11.4802 -15.2044 3.92353 
-11.2657 -15.5993 3.70424 -11.0499 -15.9887 3.47667 -10.8347 -16.3743 3.24196 
-10.622 -16.7576 3.00143 -10.4131 -17.1403 2.75666 -10.2096 -17.5243 2.50946 
-10.0124 -17.9117 2.26197 -9.8229 -18.3048 2.01744 -9.64306 -18.7072 1.78185 
-9.47468 -19.1218 1.56011 -9.31847 -19.5509 1.35321 -9.17761 -19.9978 1.1718 
-9.06308 -20.471 1.05678 -8.98669 -20.97 1.04846 -8.95816 -21.4597 1.16549 
-8.98365 -21.8997 1.41277 -9.05797 -22.257 1.76234 -9.17266 -22.5097 2.17959 
-9.31632 -22.6752 2.63323 -9.47822 -22.779 3.09663 -9.65495 -22.8327 3.56124 
-9.8452 -22.8429 4.02388 -10.0473 -22.8117 4.48086 -10.2593 -22.7401 4.92852 
-10.4794 -22.6301 5.36431 -10.7055 -22.4837 5.78608 -10.9352 -22.3021 6.19185 
-11.1655 -22.0857 6.57985 -11.393 -21.8359 6.94899 -11.6141 -21.5544 7.29862 
-11.825 -21.2433 7.62894 -12.0214 -20.9048 7.94067 -12.1993 -20.5419 8.23566 
-12.3541 -20.1578 8.51644 -12.4816 -19.7561 8.78603 -12.5774 -19.3405 9.0478 
-12.6362 -18.9156 9.30554 -12.6522 -18.4868 9.56335 -12.6198 -18.0614 9.82532 
-12.5334 -17.648 10.0955 -12.3881 -17.2598 10.3774 -12.1796 -16.9133 10.6738 
-11.9121 -16.6238 10.9846 -11.5961 -16.4051 11.3075 -11.2453 -16.2655 11.6385 
-10.876 -16.2084 11.9727 -10.5026 -16.2301 12.3068 -10.1379 -16.3203 12.6389 
-9.79081 -16.4694 12.9678 -9.46608 -16.6686 13.2927 -9.16714 -16.9104 13.6133 
-8.89603 -17.1885 13.9291 -8.65419 -17.498 14.2393 -8.44238 -17.8349 14.5427 
-8.26113 -18.1961 14.8379 -8.11073 -18.5789 15.1229 -7.9914 -18.9812 15.3956 
-7.90332 -19.4011 15.6532 -7.84637 -19.837 15.8923 -7.81998 -20.2873 16.109 
-7.8231 -20.7503 16.2991 -7.8539 -21.224 16.4578 -7.90963 -21.7063 16.58 
-7.98594 -22.1945 16.6599 -8.07796 -22.6855 16.6929 -8.18003 -23.1755 16.6778 
-8.28556 -23.6605 16.6132 -8.38616 -24.1374 16.4973 -8.47358 -24.6023 16.3304 
-8.5407 -25.0497 16.1189 -8.58295 -25.4774 15.8688 -8.60254 -25.8933 15.5831 
-8.60052 -26.2974 15.2697 -8.57036 -26.6594 14.9543 -8.50149 -26.9741 14.637 
-8.37723 -27.3119 14.2498 -8.19669 -27.7172 13.7585 -8.09272 -27.9394 13.4853 

LINES 1 130
129 0 1 2 3 4 5 6 7 8 9 10 11 12 13 14 15 16 17 18 19 20 21 22 23 24 25 26 27 28 29 30 31 32 33 34 35 36 37 38 39 40 41 42 43 44 45 46 47 48 49 50 51 52 53 54 55 56 57 58 59 60 61 62 63 64 65 66 67 68 69 70 71 72 73 74 75 76 77 78 79 80 81 82 83 84 85 86 87 88 89 90 91 92 93 94 95 96 97 98 99 100 101 102 103 104 105 106 107 108 109 110 111 112 113 114 115 116 117 118 119 120 121 122 123 124 125 126 127 128 

CELL_DATA 1
FIELD FieldData 2
Length 1 1 double
59.075723364 
Tortuosity 1 1 double
0.84256107635 
POINT_DATA 129
SCALARS MaximumInscribedSphereRadius float
LOOKUP_TABLE default
1.24 1.18755 1.13759 1.09612 1.05466 1.01039 0.965504 0.949244 0.935041 
0.931917 0.930261 0.93 0.93 0.93 0.93 0.93 0.93 0.95671 
0.992033 1.03649 1.08438 1.13378 1.18384 1.2101 1.22452 1.23296 1.23802 
1.24 1.24 1.24 1.24 1.24 1.24 1.24 1.24 1.24 
1.24 1.24 1.24 1.25106 1.27689 1.30936 1.35189 1.39883 1.45342 
1.49721 1.51959 1.53738 1.5447 1.55 1.55 1.55 1.55 1.55 
1.55 1.55 1.55 1.55 1.55 1.55 1.55 1.55191 1.56994 
1.58936 1.64234 1.69611 1.77413 1.85214 1.85639 1.85871 1.87249 1.88703 
1.91789 1.95067 2.00237 2.05693 2.08563 2.10928 2.09585 2.07345 2.03274 
1.98672 1.94429 1.9031 1.88565 1.87775 1.87 1.86232 1.84726 1.82826 
1.78238 1.71991 1.64469 1.56035 1.46423 1.35832 1.24485 1.12419 1.03723 
0.987628 0.95342 0.938695 0.933594 0.942371 0.957793 0.984154 1.01914 1.07038 
1.12224 1.17546 1.22902 1.28345 1.33834 1.39455 1.45103 1.50842 1.5658 
1.62313 1.68025 1.73626 1.79185 1.84436 1.89687 1.94944 1.9995 2.03792 
2.07634 2.1221 2.17 
TEXTURE_COORDINATES TCoords 2 float
0 0 0.0078125 0 0.015625 0 0.0234375 0 0.03125 
0 0.0390625 0 0.046875 0 0.0546875 0 0.0625 0 
0.0703125 0 0.078125 0 0.0859375 0 0.09375 0 0.101563 
0 0.109375 0 0.117188 0 0.125 0 0.132813 0 
0.140625 0 0.148438 0 0.15625 0 0.164063 0 0.171875 
0 0.179688 0 0.1875 0 0.195313 0 0.203125 0 
0.210938 0 0.21875 0 0.226563 0 0.234375 0 0.242188 
0 0.25 0 0.257813 0 0.265625 0 0.273438 0 
0.28125 0 0.289063 0 0.296875 0 0.304688 0 0.3125 
0 0.320313 0 0.328125 0 0.335938 0 0.34375 0 
0.351563 0 0.359375 0 0.367188 0 0.375 0 0.382813 
0 0.390625 0 0.398438 0 0.40625 0 0.414063 0 
0.421875 0 0.429688 0 0.4375 0 0.445313 0 0.453125 
0 0.460938 0 0.46875 0 0.476563 0 0.484375 0 
0.492188 0 0.5 0 0.507813 0 0.515625 0 0.523438 
0 0.53125 0 0.539063 0 0.546875 0 0.554688 0 
0.5625 0 0.570313 0 0.578125 0 0.585938 0 0.59375 
0 0.601563 0 0.609375 0 0.617188 0 0.625 0 
0.632813 0 0.640625 0 0.648438 0 0.65625 0 0.664063 
0 0.671875 0 0.679688 0 0.6875 0 0.695313 0 
0.703125 0 0.710938 0 0.71875 0 0.726563 0 0.734375 
0 0.742188 0 0.75 0 0.757813 0 0.765625 0 
0.773438 0 0.78125 0 0.789063 0 0.796875 0 0.804688 
0 0.8125 0 0.820313 0 0.828125 0 0.835938 0 
0.84375 0 0.851563 0 0.859375 0 0.867188 0 0.875 
0 0.882813 0 0.890625 0 0.898438 0 0.90625 0 
0.914063 0 0.921875 0 0.929688 0 0.9375 0 0.945313 
0 0.953125 0 0.960938 0 0.96875 0 0.976563 0 
0.984375 0 0.992188 0 1 0 
FIELD FieldData 7
Curvature 1 129 double
0 0.023298077206 0.043384680604 0.061962043276 0.078489446243 0.092561858659 0.10393528736 0.11255012483 0.11848586591 
0.12192991383 0.12311472994 0.12227804252 0.1196695801 0.11554158897 0.11016716424 0.10385475928 0.096929620628 0.089728573499 
0.082581100692 0.07578923224 0.069618418201 0.064294044269 0.060021940908 0.056956323823 0.055280087367 0.055125951323 0.056641463693 
0.059877281947 0.064873990998 0.07152859688 0.079721302131 0.089180253935 0.099615735838 0.11057854124 0.12157372456 0.13196719921 
0.14107726435 0.14823164326 0.15281306327 0.15439792133 0.1528188636 0.14817528435 0.14081557701 0.13127603263 0.120160235 
0.10803141964 0.09536727372 0.082532831326 0.069696091766 0.056928962523 0.044105421718 0.031025642328 0.017434390212 0.0048034709435 
0.015578394724 0.034430040058 0.056833815399 0.083704357969 0.1163569566 0.15655317311 0.20626125878 0.26713650362 0.33904949813 
0.41749526889 0.49100485468 0.54209056251 0.55565766745 0.52967064106 0.47658163276 0.41379397917 0.35423609766 0.3038697609 
0.26395929033 0.23323230641 0.20983838775 0.1918710927 0.17777740584 0.16635860699 0.15681289659 0.14871705668 0.14196071627 
0.13684831039 0.133937391 0.13406893872 0.13801175 0.14641451537 0.15954650438 0.1772304632 0.19883153369 0.22325808923 
0.2488144203 0.27331668033 0.29415191629 0.30878399958 0.31545972003 0.31378919988 0.30476218231 0.29052644095 0.27346371432 
0.25577947112 0.23900446887 0.22405279146 0.2113903709 0.2009703201 0.1926913929 0.18630924938 0.18158847766 0.1782814754 
0.17623419411 0.17529205077 0.17528011948 0.17605492855 0.17739083856 0.17909373002 0.1808143183 0.18225501933 0.18302281892 
0.18262395761 0.18057433361 0.17621571769 0.16896025977 0.15825936356 0.1437882949 0.12556203373 0.10389137619 0.07941937835 
0.052879820139 0.02513619915 0 
Torsion 1 129 double
0 0 0.046870291804 0.06421463396 0.081894269141 0.099185520613 0.1153296666 0.12956619497 0.14118623567 
0.14964013941 0.15482536724 0.1568806416 0.15622650005 0.15346645439 0.14913322199 0.14352722741 0.1367098382 0.12838023787 
0.11789107093 0.10434396728 0.086504227818 0.063664855806 0.035774199962 0.0042050690484 -0.027110500452 -0.053021905073 -0.069577867641 
-0.074779105283 -0.070447088052 -0.060284133894 -0.047982798231 -0.036405564158 -0.026734150775 -0.01940002032 -0.014574166754 -0.01198444051 
-0.011150927003 -0.012147729942 -0.014761630464 -0.018699349096 -0.024073037907 -0.030754779327 -0.038715336662 -0.048084214061 -0.058688529425 
-0.070481850885 -0.083556702298 -0.097856253494 -0.1138592818 -0.13360154026 -0.16383922051 -0.23190870189 -0.52977419862 -6.2802091413 
-0.76941972218 -0.25290812088 -0.15367491444 -0.11330755336 -0.0896408294 -0.072374713006 -0.058528923721 -0.046539189592 -0.035705496887 
-0.025558326247 -0.016104178497 -0.0074128906614 0.00062752897199 0.0078880085816 0.013746292868 0.017188228778 0.017088197653 0.012308841811 
0.0019737654283 -0.013978826785 -0.035080085796 -0.060974724892 -0.090857553121 -0.12458014694 -0.16253718803 -0.20468973861 -0.25077443309 
-0.29891019957 -0.34432608732 -0.37911893479 -0.39587378585 -0.39091262793 -0.36819722448 -0.33582099965 -0.30169737571 -0.2705743029 
-0.24468448483 -0.224398856 -0.20902315587 -0.19766321152 -0.18930456455 -0.18268120747 -0.17654928918 -0.16962440961 -0.16047810895 
-0.14769850822 -0.13057388072 -0.10855216978 -0.081733580342 -0.050900860965 -0.017118729143 0.018201190626 0.053875055443 0.088076162473 
0.11987126201 0.14841139531 0.17256206663 0.19213941096 0.20699167492 0.21674645928 0.22184789064 0.2224441424 0.21848279539 
0.21025472946 0.197802614 0.18167300618 0.1625743535 0.14169096834 0.11974898257 0.097689332329 0.076628511022 0.056577919492 
0.038507859064 0 0 
Abscissas 1 129 double
0 0.50002513007 1.0000504971 1.5000766722 2.0001028472 2.5001264383 3.0001494639 3.5001753025 4.0002013431 
4.5002273231 5.000253295 5.5002769141 6.0003000929 6.5003270989 7.0003549523 7.5003815668 8.0004078444 8.5004324994 
9.0004566311 9.5004819423 10.000507697 10.500534592 11.000561983 11.500586938 12.000610682 12.500641196 13.000675542 
13.500700543 14.000719552 14.500732507 15.000741077 15.50076199 16.000792975 16.500827253 17.000864558 17.500895705 
18.000920458 18.50094153 19.000958282 19.500973922 20.000988079 20.501007802 21.001035968 21.50106816 22.001107325 
22.501134116 23.001136386 23.501156961 24.001219144 24.50126792 25.001281565 25.501297138 26.001318599 26.501334147 
27.001328422 27.501334075 28.001388576 28.501435222 29.001439803 29.501449982 30.001497021 30.501543076 31.001580811 
31.501616712 32.001608136 32.501600898 33.001634705 33.501668512 34.001697188 34.501725729 35.00174981 35.501773598 
36.001804112 36.501835421 37.00186401 37.501892189 38.001908063 38.50192153 39.001942559 39.501965418 40.002009254 
40.50205919 41.002084144 41.502100499 42.00211925 42.502138964 43.002167255 43.502199533 44.002217319 44.502227355 
45.002245071 45.502267523 46.002308294 46.502362156 47.002386252 47.502385624 48.002409204 48.502455806 49.00248913 
49.502507729 50.002539105 50.502586652 51.002610081 51.502598726 52.002604495 52.502638454 53.002673975 53.502712434 
54.002749352 54.502782934 55.00281133 55.502826707 56.002847131 56.502882415 57.002918609 57.502957996 58.002991382 
58.502998924 59.003007562 59.503021875 60.003038296 60.503070014 61.003099873 61.503105443 62.003118323 62.503164913 
63.003211502 63.503244083 64.003272582 
ParallelTransportNormals 3 129 double
0 -0.99749729171 0.070704688846 0.0024854467582 -0.99769544641 0.067719431678 0.0066056713958 -0.9979257935 0.063349059719 
0.016299142188 -0.99826589014 0.054256587113 0.02599261298 -0.99860598678 0.045164114506 0.046213096963 -0.99813525008 0.030302415544 
0.068737372481 -0.99748706598 0.014178146219 0.10532309482 -0.99342608513 -0.0067876999555 0.14291932685 -0.98911984757 -0.028101480483 
0.19415332096 -0.97782652749 -0.050899236908 0.24719293287 -0.9656081289 -0.07389346936 0.30430133464 -0.94571093439 -0.094125178145 
0.36217115958 -0.92437674918 -0.11383991515 0.4167914476 -0.8974818125 -0.13000970754 0.47069232349 -0.8693557859 -0.14539468773 
0.514602911 -0.84142050727 -0.15705098551 0.55579610614 -0.81353711272 -0.16769306899 0.58773609869 -0.78882142216 -0.17586041782 
0.61669190097 -0.76512732723 -0.18322965604 0.63906245115 -0.74506370496 -0.18906973263 0.65895522786 -0.72636608792 -0.19433444535 
0.67492384898 -0.71033821926 -0.19871692518 0.68918648732 -0.69547099387 -0.20271586413 0.70174245734 -0.68167609898 -0.20634904692 
0.71344912006 -0.66841483919 -0.20980021464 0.72511630505 -0.6545218793 -0.21329720602 0.73676113892 -0.64027126963 -0.21682014141 
0.74971250732 -0.62349508427 -0.22071025769 0.76350163275 -0.60509948605 -0.22483581236 0.77962942339 -0.58192876296 -0.22946217746 
0.79745055838 -0.55530054171 -0.23445116158 0.81799137641 -0.52124573173 -0.23965992399 0.84075148738 -0.48113073911 -0.24504802801 
0.86497702855 -0.43164435698 -0.24963433395 0.89054988652 -0.37354191757 -0.25348346657 0.91453913509 -0.3061995511 -0.25497115171 
0.93688444486 -0.22926525214 -0.25400742735 0.95409456492 -0.14702690713 -0.24956795901 0.9652812085 -0.058567020498 -0.24105151139 
0.97025968737 0.028140668321 -0.22967566974 0.9669547535 0.11251043951 -0.21448460377 0.95967468979 0.19067599962 -0.19817472327 
0.94636412503 0.25942941404 -0.18016753668 0.93214253891 0.32076683511 -0.16268349357 0.91634360452 0.36926415765 -0.14610522444 
0.90131318437 0.41206482376 -0.13065113285 0.88780571926 0.44357649715 -0.11742480983 0.8756154885 0.47107175946 -0.10546737058 
0.866419325 0.4894377389 -0.096394097984 0.85852488134 0.50501601684 -0.088546958346 0.8540413647 0.51328961519 -0.083912683641 
0.85063003467 0.51958335749 -0.080384284174 0.85049249371 0.5198318544 -0.080232537853 0.85119714615 0.51851514498 -0.081075604003 
0.85493144094 0.51156788157 -0.085497332719 0.85936386582 0.50310188808 -0.090853178258 0.86679362761 0.48811541099 -0.10021954119 
0.87487617065 0.4712336647 -0.11049412898 0.88645426062 0.44420303233 -0.1256321265 0.89864300465 0.41433217736 -0.14146037391 
0.91485261671 0.36575980055 -0.16183359023 0.93167787422 0.3102342093 -0.18135381698 0.95371460064 0.19584931637 -0.19365344511 
0.97490651262 0.080476550268 -0.20331885826 0.97560357485 -0.058861611347 -0.14907930226 0.97551363875 -0.1963644751 -0.093432000847 
0.95130042663 -0.27761131561 0.0053658757659 0.9270872145 -0.35885815611 0.10416375238 0.90252089856 -0.38322984933 0.17838874856 
0.87794532111 -0.40610977337 0.25196922657 0.85541081667 -0.41090699155 0.30922401818 0.83301079035 -0.41451281277 0.3654031758 
0.80959044431 -0.40921761349 0.41697693554 0.78604938984 -0.40286938321 0.46800585588 0.76289406825 -0.3900248809 0.51300545017 
0.73979685058 -0.37620182889 0.557096832 0.71847893022 -0.35818132644 0.594474567 0.6975089946 -0.33933991079 0.63053928559 
0.68074629544 -0.32006693891 0.65794723102 0.6650018471 -0.30068952021 0.68326003243 0.65532383698 -0.28607810753 0.69880034696 
0.64740996475 -0.27285266328 0.71149879385 0.64572865674 -0.27029455838 0.71412413626 0.64619262305 -0.2714081957 0.71328227457 
0.65019334489 -0.28782480718 0.70263747755 0.65561554021 -0.31039190651 0.68805273829 0.65892247846 -0.35265667278 0.66189081629 
0.66124603198 -0.40407890039 0.63034665264 0.65101832216 -0.47615940611 0.58327512132 0.6340777338 -0.55928872088 0.52789898109 
0.59013799288 -0.65442876934 0.45177070356 0.52955606076 -0.7569721956 0.36285087504 0.44307163653 -0.8431641249 0.26161133268 
0.33807923657 -0.91767250239 0.15156904796 0.22625028475 -0.96224876268 0.04240142906 0.10874261886 -0.98196220637 -0.066039657342 
0.0045910224413 -0.98039998496 -0.16218761728 -0.08685819244 -0.95860339626 -0.24664411493 -0.16457986654 -0.92895656102 -0.32098835444 
-0.22707961438 -0.8906048983 -0.38411951142 -0.2805111197 -0.84994576462 -0.44116562212 -0.3224665294 -0.80636646671 -0.49051094925 
-0.35905878156 -0.76141005269 -0.53679628583 -0.38791637525 -0.71446758423 -0.57866855387 -0.41328559868 -0.66566406383 -0.61908199104 
-0.43291242366 -0.6137969633 -0.65709396633 -0.4498067389 -0.55906556229 -0.69438637283 -0.46155751345 -0.49894254425 -0.73032429877 
-0.47062887406 -0.43526841103 -0.76530824329 -0.47390054133 -0.36390775402 -0.79822725876 -0.47446355095 -0.28892011551 -0.82917781109 
-0.46822567795 -0.20482587196 -0.85518595707 -0.45975427856 -0.11819660151 -0.87777612453 -0.44470863221 -0.024105635927 -0.8903056833 
-0.42886599168 0.069366540867 -0.89875314141 -0.4102292961 0.16066940456 -0.89288981266 -0.39212356962 0.25002731553 -0.88384831621 
-0.37630415053 0.33101042679 -0.86112190217 -0.36184799714 0.40821247736 -0.83734229982 -0.35445040781 0.46583737649 -0.80810961725 
-0.34784858703 0.52042738905 -0.77960411692 -0.34702043631 0.55299789177 -0.75637466112 -0.3465555053 0.58522013603 -0.73295884344 
-0.35083879282 0.61288974398 -0.70710679528 -0.35479174371 0.6367854478 -0.6845334291 -0.35722136732 0.64327802168 -0.677079506 
-0.35965099093 0.64977059556 -0.6696255829 -0.36019909839 0.65123527846 -0.6679440258 -0.36019909839 0.65123527846 -0.6679440258 

FrenetTangent 3 129 double
-0.72074611193 0.009152164923 0.69313871628 -0.72074611193 0.009152164923 0.69313871628 -0.73062433405 0.0011666567641 0.68277867674 
-0.74560158484 -0.011884590226 0.66628599955 -0.76435525201 -0.030096566801 0.64409257517 -0.78527906465 -0.053503327275 0.61682589488 
-0.80664599025 -0.082014311609 0.58531692193 -0.82677657867 -0.11536310292 0.5505741035 -0.84418685966 -0.15307830443 0.51372714419 
-0.85769868151 -0.19448123509 0.47595170021 -0.86650595461 -0.23871097942 0.43838852509 -0.87019487564 -0.28477292982 0.4020761829 
-0.86872934337 -0.33160529132 0.36789571721 -0.86240557758 -0.37815581338 0.33653350586 -0.85178306115 -0.42345684573 0.30846380103 
-0.83760046443 -0.46669115689 0.28394511101 -0.82068595051 -0.50723724786 0.26303031196 -0.80187150882 -0.5446903569 0.2455901025 
-0.78191970332 -0.57886280582 0.23134266705 -0.76146899118 -0.60976543946 0.2198887999 -0.74099955009 -0.63757756265 0.21074752283 
-0.7208193033 -0.66261131254 0.20338579224 -0.70106087009 -0.68527889866 0.19724727499 -0.68169438685 -0.70605644025 0.19177347606 
-0.66254261108 -0.72545602231 0.18641579384 -0.64329770176 -0.74399818854 0.18065094065 -0.62353986135 -0.76218474001 0.17398983705 
-0.60275971302 -0.78046934405 0.16597690006 -0.58037448069 -0.79922940031 0.15619804045 -0.55575010471 -0.81873308591 0.14428428589 
-0.5282269076 -0.8391051709 0.12991861399 -0.49715313024 -0.86029300049 0.11284820957 -0.46193194385 -0.88203708139 0.092894920774 
-0.42207623531 -0.9038555982 0.069976490249 -0.37727880107 -0.92504769114 0.04413020929 -0.32748767084 -0.94472783435 0.015528826513 
-0.27298109094 -0.96189448481 -0.0155023896 -0.21440473685 -0.97554089797 -0.048482627811 -0.15278109662 -0.98478500539 -0.082803560795 
-0.089456659332 -0.98900306601 -0.11777283865 -0.025982040695 -0.98793496345 -0.15267429891 0.03603472534 -0.98172900057 -0.18684129096 
0.095086660004 -0.9709198933 -0.21971137402 0.14990145618 -0.9563460818 -0.25086196457 0.19952331113 -0.93903087359 -0.28002047562 
0.24333410498 -0.92006422342 -0.3070347507 0.2810282715 -0.90050609048 -0.33183111914 0.31256341339 -0.88132035562 -0.35437062996 
0.33809294856 -0.86334963278 -0.37459387304 0.35790406749 -0.84731629678 -0.39237707843 0.37236112567 -0.83384301918 -0.4074960263 
0.38186075123 -0.82348411742 -0.41959060407 0.3868024804 -0.81675021774 -0.42813890616 0.3875443806 -0.8141346382 -0.43242819514 
0.38438351328 -0.81610631831 -0.43153191299 0.37752200821 -0.82307971586 -0.42428400237 0.36701134512 -0.83536082705 -0.40923704766 
0.35269429055 -0.85304138936 -0.38461295539 0.33414018354 -0.87582353112 -0.3482577782 0.31057364735 -0.90275952113 -0.29760587458 
0.28080766637 -0.93186277051 -0.22973643909 0.24326779282 -0.959558209 -0.14166447868 0.19619717595 -0.98007057513 -0.031118096371 
0.13822583988 -0.98514304299 0.10191566138 0.069403089207 -0.96497385132 0.25299936259 -0.007634403319 -0.91130567335 0.41165967207 
-0.087414696274 -0.82197425881 0.56277614442 -0.16325406931 -0.70341076919 0.69178132285 -0.22987341109 -0.56804747138 0.79024065014 
-0.28490948988 -0.42863292942 0.85737995918 -0.3285379229 -0.29416458498 0.8975132479 -0.36220815543 -0.16919273234 0.91661282528 
-0.38758814137 -0.055017302079 0.92018939852 -0.40601636019 0.048822571579 0.91256072223 -0.41835131985 0.14347199698 0.89688235531 
-0.42500940868 0.23016846928 0.87543673574 -0.4260562553 0.30995272038 0.84994433844 -0.42132938314 0.38356969433 0.82180036535 
-0.41053397601 0.45145891061 0.79224157084 -0.39331404503 0.51379478923 0.76244276936 -0.36931752218 0.5705234325 0.73355816455 
-0.33822819223 0.6214083191 0.70672016452 -0.299777186 0.66605270389 0.68301349503 -0.25374796158 0.7038990015 0.6634290977 
-0.19999698949 0.73419374358 0.64881488199 -0.13848911008 0.75593762632 0.63982737634 -0.069357760871 0.76785277615 0.63686075022 
0.0069848350737 0.76835500761 0.63998577669 0.089685191097 0.75558905234 0.64887730003 0.17725083652 0.72756624949 0.6627439125 
0.26735594317 0.6824545293 0.68027686649 0.3567476491 0.61902414314 0.69967151226 0.44136679043 0.53717719081 0.71877397142 
0.51675486826 0.4384219444 0.73535746736 0.57874532747 0.3260214337 0.74750509744 0.62422749269 0.20464489614 0.75396319794 
0.6516778914 0.079603610529 0.75430709333 0.66125927079 -0.044075779115 0.74886147083 0.65448861966 -0.16236872859 0.73843147462 
0.63369728832 -0.27256998081 0.7239705466 0.60150708569 -0.37325167265 0.70630900796 0.56045110047 -0.46399046824 0.68600831581 
0.51277182426 -0.54506600671 0.66330091555 0.46036909146 -0.61714889189 0.63811248606 0.40482940685 -0.68107751729 0.61012012489 
0.34748473492 -0.73771546748 0.57881797487 0.28949492755 -0.78784432636 0.54359360219 0.23193253552 -0.83210279616 0.50379781222 
0.17582748823 -0.87095469044 0.45882744206 0.12221312618 -0.90468251181 0.40818317531 0.072160023897 -0.93338773108 0.35153986179 
0.026761248889 -0.9570099568 0.28881789789 -0.012882442583 -0.97536216695 0.22023325352 -0.04571302986 -0.98817865668 0.14633270785 
-0.070790789893 -0.99516894248 0.06802528938 -0.087371955181 -0.9960852061 -0.013431441796 -0.095001416508 -0.99079028774 -0.096484903367 
-0.093605053252 -0.97932309844 -0.17934425798 -0.083561744652 -0.96196249712 -0.26008765633 -0.06575700148 -0.93928429212 -0.33678039629 
-0.041591047081 -0.91221058383 -0.40760524475 -0.012925983969 -0.88202916267 -0.47101748921 0.018038742932 -0.85037464426 -0.52586839433 
0.04894085294 -0.81913719143 -0.57150595318 0.077474477154 -0.79031785232 -0.60777906981 0.10160052776 -0.7658434438 -0.63494972427 
0.11968739146 -0.74737892221 -0.65352863362 0.13059906618 -0.73617400699 -0.66407207089 0.13059906618 -0.73617400699 -0.66407207089 

FrenetNormal 3 129 double
-0.61210751165 -0.47770035982 -0.63017994288 -0.61210751165 -0.47770035982 -0.63017994288 -0.59474278283 -0.492261476 -0.63557821039 
-0.5667467951 -0.51463000738 -0.64339259068 -0.52813752166 -0.54383489746 -0.652161301 -0.47907169504 -0.57859257843 -0.66009161425 
-0.4199724286 -0.61728135836 -0.66527203747 -0.35168895061 -0.65787935073 -0.66596519571 -0.27550190904 -0.69820075422 -0.66076804169 
-0.19316613939 -0.73599870778 -0.64883953697 -0.10676550054 -0.76928610511 -0.62992064292 -0.018518803324 -0.7965737542 -0.60425765039 
0.069348461347 -0.81691398301 -0.57257517871 0.15487464248 -0.83002245377 -0.53579527 0.23640685388 -0.83611272277 -0.49500233764 
0.31270682755 -0.83580141146 -0.45127645695 0.38285794121 -0.82989194219 -0.40583144425 0.44631230836 -0.81931509563 -0.35990012154 
0.50271657983 -0.80498456522 -0.31508076762 0.55198766588 -0.78783136719 -0.27318739646 0.59415703721 -0.76875354858 -0.23663346483 
0.62942161014 -0.748637334 -0.20825604154 0.65815526838 -0.72826955434 -0.19093218411 0.68077807622 -0.70814961455 -0.18725740132 
0.69777713263 -0.68826704396 -0.19848312117 0.70989036407 -0.66800527373 -0.22321430347 0.7181530823 -0.64636890309 -0.25780494856 
0.7240453615 -0.62240282823 -0.29727602307 0.72959300204 -0.59551850128 -0.33623171474 0.73647830047 -0.56537149091 -0.3714226571 
0.74604793788 -0.53171246271 -0.40086697467 0.75868230404 -0.49412355834 -0.42455043356 0.77419403194 -0.45210651332 -0.44297099398 
0.79185187806 -0.40515218672 -0.45697079645 0.8106493624 -0.35291116327 -0.46722727027 0.82924744757 -0.29525657316 -0.47452315718 
0.84634122694 -0.23246401132 -0.47923586157 0.86061816141 -0.16520693114 -0.48170847009 0.87078237107 -0.094524830976 -0.48249675497 
0.87588785998 -0.021825043701 -0.48202087528 0.87527143759 0.051299213311 -0.4809036299 0.86855813466 0.12323749915 -0.48002008866 
0.85577839096 0.19247667601 -0.48020420111 0.83707877354 0.25778398077 -0.48254175586 0.81273255319 0.31822647993 -0.48805502196 
0.78301927521 0.37315378289 -0.49763145898 0.74804755434 0.42214502256 -0.51207268662 0.70767798731 0.46490464395 -0.53202964045 
0.66154958487 0.50112181657 -0.55787908342 0.60859187585 0.53037264784 -0.59018707465 0.54596542243 0.55186578497 -0.63036966369 
0.46468955254 0.5635058123 -0.68302622151 0.32051502486 0.55440403963 -0.76805356563 -0.53833614056 0.18092109914 -0.82308064955 
-0.65916103191 -0.56989653258 0.4906370106 -0.51713727628 -0.56748091606 0.64072962112 -0.45111447557 -0.54457729645 0.70705819995 
-0.41151096969 -0.51054375124 0.75498596006 -0.38754100226 -0.46448283803 0.79628365847 -0.37566275916 -0.40417023475 0.8339807628 
-0.37389378716 -0.32667060218 0.86803787567 -0.38013531808 -0.22868486068 0.896214469 -0.39182570683 -0.10745047872 0.91374340495 
-0.40515185184 0.037654245121 0.91347366398 -0.41529055676 0.20264308144 0.88683117616 -0.41697688107 0.37707431342 0.82700982026 
-0.40666568899 0.54516616632 0.73308721752 -0.38417857452 0.69116693828 0.61212342408 -0.35249351012 0.80545013052 0.47644350407 
-0.31564347178 0.88651836396 0.33831108331 -0.27675526777 0.93853394931 0.20630207888 -0.23707618455 0.96776956819 0.084952607988 
-0.19607168905 0.98029642393 -0.023975278446 -0.15193304254 0.9810686765 -0.1200858134 -0.10252180746 0.97367619312 -0.20357787197 
-0.045493839039 0.96047778229 -0.27461380217 0.021281481319 0.9426536025 -0.33309350675 0.099338607627 0.92022314356 -0.37857787455 
0.19013934776 0.89211794541 -0.40984460458 0.29436053342 0.85599891951 -0.42499144245 0.41146641112 0.80816225732 -0.42138955653 
0.53862316262 0.74363788676 -0.39609062355 0.6693420357 0.65699335112 -0.34690196861 0.79241744575 0.5446027179 -0.27474073475 
0.89425358721 0.4073825583 -0.18533745696 0.96355189114 0.25215671629 -0.089357391967 0.99600669103 0.089274724205 0.00083369728944 
0.99451294288 -0.072142724571 0.075759050541 0.96527716302 -0.22643543833 0.13025740218 0.91402239832 -0.37137064289 0.16323878512 
0.84452268973 -0.50590485745 0.17561805642 0.75865274483 -0.62900931502 0.16968586969 0.65756130296 -0.73866791468 0.14826612787 
0.54269006282 -0.83206244428 0.1147152324 0.4164542345 -0.9062358941 0.072817407311 0.28237179143 -0.9589390396 0.026496976036 
0.14481962838 -0.98924111973 -0.020719128032 0.0083454737084 -0.99777840044 -0.066095511881 -0.12285346813 -0.98652718965 -0.10803300167 
-0.2450738755 -0.95839994377 -0.14631590254 -0.35542129204 -0.91685002163 -0.18182888384 -0.45182982891 -0.8654959261 -0.21625588458 
-0.53284382911 -0.80784406994 -0.25192342575 -0.59782642833 -0.74691421342 -0.29107167395 -0.64643679728 -0.68508180276 -0.33583089591 
-0.67875461898 -0.62378143282 -0.3875421155 -0.69470920129 -0.56361802692 -0.44689355039 -0.69414928328 -0.50440782876 -0.51354602014 
-0.67711412223 -0.44532036121 -0.58583806753 -0.64325408572 -0.38539665643 -0.66158415823 -0.59291031809 -0.32356439052 -0.73740317323 
-0.52686886339 -0.25903711411 -0.80951156527 -0.44651116369 -0.1914607996 -0.87405408466 -0.35409954695 -0.12094502071 -0.9273542003 
-0.25269336924 -0.048080224987 -0.96635105066 -0.14562179198 0.026109111424 -0.98899575732 -0.03672454641 0.10034553104 -0.99427465124 
0.070104847919 0.17320474733 -0.98238761485 0.17122898155 0.24325779367 -0.95472838111 0.26338891423 0.30920183827 -0.91379456284 
0.34422833113 0.36989907614 -0.86294932037 0.41230734217 0.42444500981 -0.80613217851 0.46747636056 0.47209835801 -0.74738811382 
0.50993156796 0.51249198337 -0.69088476823 0.5412929648 0.54528343588 -0.64005304532 0.56292911036 0.57049967752 -0.59803088103 
0.5766284749 0.58818294016 -0.56704535167 0.58357608223 0.59856199425 -0.5487827396 0.58357608223 0.59856199425 -0.5487827396 

FrenetBinormal 3 129 double
0.3253451034 -0.8784751585 0.3499027859 0.3253451034 -0.8784751585 0.3499027859 0.33536413757 -0.87044659696 0.36035207377 
0.35053722616 -0.85732999016 0.37697339568 0.36990783573 -0.83865237195 0.3997879339 0.39220798263 -0.81385995242 0.42872470911 
0.41586705283 -0.78245599066 0.46348378295 0.43903914515 -0.74423525472 0.50334731017 0.45983393099 -0.69934450703 0.54723853702 
0.47648695085 -0.64844656784 0.59369793189 0.48761517462 -0.59263475834 0.64110489367 0.49235955595 -0.53326788068 0.68790074509 
0.49040811462 -0.47189985711 0.73267346477 0.48194446244 -0.40995232289 0.77438274005 0.46752263708 -0.34871164969 0.81229475512 
0.44792845634 -0.28919779507 0.84600516153 0.42413956132 -0.23235692086 0.87528046582 0.39724980397 -0.17898376792 0.90008744246 
0.36861581346 -0.13006806599 0.92043722235 0.33981552671 -0.086647825778 0.93649215805 0.31288509378 -0.050128167212 0.94846722924 