# vtk DataFile Version 4.2
vtk output
ASCII
DATASET POLYDATA
POINTS 128 float
0 0 0 -0.288009 0.142003 0.106703 -0.860126 0.402936 0.310562 
-1.3584 0.579383 0.469005 -1.79682 0.673623 0.587495 -2.27205 0.732622 0.704573 
-2.77338 0.739514 0.816733 -3.26631 0.666367 0.912433 -3.73792 0.512458 0.994569 
-4.18145 0.285732 1.06985 -4.58941 -0.00255826 1.143 -4.95592 -0.339998 1.21797 
-5.28457 -0.713339 1.29802 -5.58186 -1.11 1.38575 -5.85405 -1.52239 1.48141 
-6.10714 -1.9449 1.58444 -6.3465 -2.37374 1.69388 -6.57711 -2.80596 1.80851 
-6.80305 -3.23977 1.92629 -7.02795 -3.67395 2.04467 -7.25474 -4.10804 2.1598 
-7.48587 -4.54195 2.26699 -7.72251 -4.97629 2.35931 -7.96494 -5.41191 2.42845 
-8.21077 -5.8499 2.46286 -8.45561 -6.29088 2.44933 -8.68845 -6.73125 2.37257 
-8.89543 -7.16506 2.21834 -9.06293 -7.58227 1.98776 -9.1789 -7.97205 1.69003 
-9.24291 -8.33232 1.34221 -9.26022 -8.6655 0.964302 -9.23735 -8.97654 0.569024 
-9.18117 -9.27152 0.16506 -9.0967 -9.55508 -0.242109 -8.98779 -9.83106 -0.648732 
-8.85689 -10.1028 -1.05155 -8.70569 -10.3731 -1.44775 -8.53595 -10.6439 -1.83645 
-8.34908 -10.9165 -2.21719 -8.14258 -11.1945 -2.58241 -7.91223 -11.4819 -2.92173 
-7.66124 -11.7784 -3.24174 -7.39522 -12.0821 -3.55352 -7.09194 -12.4045 -3.79521 
-6.71841 -12.7597 -3.86211 -6.33924 -13.0822 -3.70892 -6.08072 -13.2577 -3.33929 
-5.95891 -13.2853 -2.83281 -5.91399 -13.241 -2.31447 -5.91192 -13.1632 -1.82204 
-5.93773 -13.0631 -1.33431 -5.98257 -12.949 -0.845007 -6.04182 -12.8276 -0.358983 
-6.11201 -12.7041 0.123342 -6.19053 -12.5831 0.604993 -6.2753 -12.4699 1.08792 
-6.36462 -12.3705 1.57315 -6.45686 -12.2922 2.06159 -6.55039 -12.2435 2.55395 
-6.64326 -12.2349 3.04883 -6.7332 -12.2781 3.54282 -6.81763 -12.3815 4.02907 
-6.8937 -12.5501 4.49779 -6.95965 -12.7815 4.94104 -7.01474 -13.0667 5.35287 
-7.05909 -13.3958 5.73171 -7.09358 -13.7578 6.08016 -7.11892 -14.1441 6.40182 
-7.13569 -14.5484 6.7011 -7.14414 -14.9658 6.98212 -7.14421 -15.3925 7.24868 
-7.13541 -15.8259 7.50413 -7.11687 -16.2637 7.7514 -7.08739 -16.704 7.99317 
-7.0455 -17.1449 8.23193 -6.98924 -17.5846 8.47 -6.91614 -18.0211 8.70954 
-6.82336 -18.4518 8.95255 -6.70766 -18.8741 9.20085 -6.56557 -19.2841 9.45591 
-6.39335 -19.6775 9.71876 -6.18778 -20.0488 9.98983 -5.94647 -20.3918 10.2687 
-5.66865 -20.7004 10.5542 -5.35586 -20.9689 10.8436 -5.01127 -21.1937 11.1344 
-4.64026 -21.3741 11.4235 -4.2483 -21.5112 11.7085 -3.84076 -21.6085 11.9878 
-3.42219 -21.6703 12.2605 -2.99585 -21.7015 12.5263 -2.5643 -21.7066 12.7851 
-2.12915 -21.6901 13.0373 -1.69157 -21.6558 13.2833 -1.25217 -21.6075 13.5237 
-0.811335 -21.5485 13.7589 -0.369247 -21.4818 13.9896 0.0739786 -21.4102 14.2166 
0.518252 -21.3362 14.4408 0.963437 -21.2621 14.6632 1.40928 -21.19 14.8848 
1.8554 -21.1214 15.1071 2.30109 -21.0575 15.3315 2.74555 -20.999 15.5599 
3.18776 -20.9461 15.794 3.6266 -20.8988 16.0355 4.06082 -20.8565 16.2861 
4.48919 -20.8186 16.5473 4.91056 -20.7842 16.8201 5.32396 -20.7524 17.1052 
5.72879 -20.7232 17.4026 6.12465 -20.6964 17.712 6.51159 -20.673 18.0328 
6.88977 -20.6543 18.3641 7.25945 -20.6414 18.7052 7.6209 -20.6366 19.0551 
7.97437 -20.644 19.4133 8.31987 -20.6671 19.7789 8.65686 -20.707 20.1498 
8.98464 -20.768 20.5246 9.30249 -20.8668 20.9054 9.6074 -21.0133 21.29 
9.8884 -21.1843 21.6581 10.1404 -21.3781 22.0019 10.3865 -21.6991 22.3744 
10.6235 -22.1668 22.7757 10.734 -22.4208 22.9724 
LINES 1 129
128 0 1 2 3 4 5 6 7 8 9 10 11 12 13 14 15 16 17 18 19 20 21 22 23 24 25 26 27 28 29 30 31 32 33 34 35 36 37 38 39 40 41 42 43 44 45 46 47 48 49 50 51 52 53 54 55 56 57 58 59 60 61 62 63 64 65 66 67 68 69 70 71 72 73 74 75 76 77 78 79 80 81 82 83 84 85 86 87 88 89 90 91 92 93 94 95 96 97 98 99 100 101 102 103 104 105 106 107 108 109 110 111 112 113 114 115 116 117 118 119 120 121 122 123 124 125 126 127 

CELL_DATA 1
FIELD FieldData 2
Length 1 1 double
58.703623735 
Tortuosity 1 1 double
0.73436464155 
POINT_DATA 128
SCALARS MaximumInscribedSphereRadius float
LOOKUP_TABLE default
0.93 0.993227 1.05645 1.1169 1.1772 1.13529 1.09146 0.99445 0.894447 
0.811533 0.729763 0.739546 0.757236 0.843246 0.936496 1.02584 1.1147 1.20169 
1.2884 1.37547 1.46259 1.41747 1.34668 1.19969 1.03606 1.06456 1.13977 
1.1946 1.24396 1.24999 1.24335 1.1685 1.07184 1.00389 0.945941 0.930138 
0.930328 0.945492 0.966828 1.0064 1.05409 1.16487 1.30633 1.43943 1.56833 
1.52917 1.38997 1.3415 1.34486 1.39249 1.46434 1.44141 1.36229 1.25243 
1.12294 1.08251 1.10295 1.15796 1.2383 1.31831 1.39807 1.39841 1.33212 
1.25556 1.16982 1.19489 1.32508 1.38168 1.36369 1.27664 1.11482 1.03401 
1.04699 1.08894 1.16675 1.21726 1.23159 1.24 1.24 1.24 1.24 
1.24 1.24 1.24319 1.25197 1.27792 1.33606 1.39504 1.4557 1.48583 
1.44979 1.39832 1.31068 1.21898 1.11699 1.05213 1.08987 1.15705 1.31298 
1.41955 1.36316 1.28446 1.12469 1.00767 1.06271 1.12351 1.21016 1.28792 
1.32086 1.34978 1.35577 1.35944 1.34795 1.34975 1.45313 1.56031 1.702 
1.8306 1.81381 1.79452 1.73923 1.68637 1.67699 1.66732 1.64267 1.61756 
1.58378 1.55 
TEXTURE_COORDINATES TCoords 2 float
0 0 0.00787402 0 0.015748 0 0.023622 0 0.0314961 
0 0.0393701 0 0.0472441 0 0.0551181 0 0.0629921 0 
0.0708661 0 0.0787402 0 0.0866142 0 0.0944882 0 0.102362 
0 0.110236 0 0.11811 0 0.125984 0 0.133858 0 
0.141732 0 0.149606 0 0.15748 0 0.165354 0 0.173228 
0 0.181102 0 0.188976 0 0.19685 0 0.204724 0 
0.212598 0 0.220472 0 0.228346 0 0.23622 0 0.244094 
0 0.251969 0 0.259843 0 0.267717 0 0.275591 0 
0.283465 0 0.291339 0 0.299213 0 0.307087 0 0.314961 
0 0.322835 0 0.330709 0 0.338583 0 0.346457 0 
0.354331 0 0.362205 0 0.370079 0 0.377953 0 0.385827 
0 0.393701 0 0.401575 0 0.409449 0 0.417323 0 
0.425197 0 0.433071 0 0.440945 0 0.448819 0 0.456693 
0 0.464567 0 0.472441 0 0.480315 0 0.488189 0 
0.496063 0 0.503937 0 0.511811 0 0.519685 0 0.527559 
0 0.535433 0 0.543307 0 0.551181 0 0.559055 0 
0.566929 0 0.574803 0 0.582677 0 0.590551 0 0.598425 
0 0.606299 0 0.614173 0 0.622047 0 0.629921 0 
0.637795 0 0.645669 0 0.653543 0 0.661417 0 0.669291 
0 0.677165 0 0.685039 0 0.692913 0 0.700787 0 
0.708661 0 0.716535 0 0.724409 0 0.732283 0 0.740157 
0 0.748031 0 0.755906 0 0.76378 0 0.771654 0 
0.779528 0 0.787402 0 0.795276 0 0.80315 0 0.811024 
0 0.818898 0 0.826772 0 0.834646 0 0.84252 0 
0.850394 0 0.858268 0 0.866142 0 0.874016 0 0.88189 
0 0.889764 0 0.897638 0 0.905512 0 0.913386 0 
0.92126 0 0.929134 0 0.937008 0 0.944882 0 0.952756 
0 0.96063 0 0.968504 0 0.976378 0 0.984252 0 
0.992126 0 1 0 
FIELD FieldData 7
Curvature 1 128 double
0 0.044155132729 0.083290596131 0.12109433332 0.15622568929 0.18663895128 0.20984972631 0.22360597724 0.22672040785 
0.21962210124 0.20425161372 0.18337708577 0.15978257769 0.13577229658 0.1130145713 0.092798064452 0.07647043596 0.065962796695 
0.063628303545 0.07045162104 0.084950778216 0.10490012758 0.12850460538 0.15419671465 0.18010007211 0.203780578 0.22233477128 
0.23309741689 0.23442838715 0.22647097784 0.21102424276 0.19100022906 0.16948442815 0.14927443832 0.13275236618 0.12212501872 
0.11946150084 0.12670325598 0.14564125512 0.17898984632 0.23208844107 0.31494498292 0.44388620103 0.63801446017 0.89449629735 
1.1285715664 1.1744728556 0.98665159886 0.71375150842 0.48395289973 0.32416374287 0.21835263338 0.1477247875 0.10022619702 
0.07140333111 0.062761714749 0.072592240967 0.092174744117 0.1150746094 0.13801389514 0.15883151289 0.17563582792 0.18672653395 
0.19109213208 0.18848031677 0.17968404982 0.16615121227 0.14967352613 0.13192941178 0.11439332198 0.098256166762 0.08457408092 
0.074425814899 0.068907533379 0.068679730863 0.073522199914 0.082376949872 0.094028104095 0.10738798251 0.12152942559 0.13560607388 
0.14873112099 0.15995898595 0.16839237604 0.17328836207 0.17418451752 0.17096262733 0.16398227349 0.15391152195 0.14147332696 
0.12759118587 0.11298073414 0.098256175912 0.083826035866 0.070010231218 0.056973645993 0.044779154952 0.033578831445 0.023336896805 
0.014255777916 0.0073758467276 0.0075028123243 0.013242134977 0.019607698384 0.025686909232 0.031305574696 0.036431458066 0.041031636352 
0.045119531278 0.048706659892 0.051963905263 0.05511808268 0.058551300313 0.062674025301 0.067966670524 0.07469936048 0.082920753916 
0.092191519998 0.10159998715 0.10982602027 0.11518106508 0.11584958894 0.11040479152 0.098073075102 0.079104947638 0.05465323913 
0.026511111829 0 
Torsion 1 128 double
0 0 0.024364849582 0.032925605953 0.041287053947 0.04901728067 0.055788741149 0.061237679559 0.064849320944 
0.065851056442 0.062931858427 0.053903883446 0.035198411347 0.00078873129623 -0.059395113686 -0.16017411929 -0.31302009917 -0.48419316217 
-0.54427718599 -0.42618053343 -0.25390306 -0.12180063966 -0.03786852169 0.0132748614 0.045162729363 0.066038617728 0.081528922038 
0.095228598727 0.10977534837 0.12761666502 0.15123757595 0.18408133857 0.22974024169 0.29093521621 0.36558540905 0.43753845105 
0.47554805026 0.45504187584 0.38743625146 0.30542727121 0.23217150972 0.17491465036 0.13212367699 0.10066526848 0.078089368708 
0.064131916611 0.05949759669 0.064080592658 0.077536196184 0.10162757179 0.14291648503 0.21565486393 0.35033160972 0.60656245509 
1.0018912672 1.1246279466 0.74262434864 0.40961706395 0.2332581021 0.1428799424 0.094429834573 0.067744897388 0.053569625031 
0.047525086176 0.047816721328 0.053911933897 0.0664387437 0.087144000174 0.11892257395 0.16584441336 0.23242903992 0.31990022093 
0.4154548376 0.48100064563 0.47459934946 0.40059632302 0.30515719271 0.22119487931 0.15775026827 0.11302398965 0.0818821412 
0.060152605471 0.044693743559 0.033517702974 0.025303764299 0.018798811395 0.01341062014 0.0088980509246 0.0045941254791 0.00039021570316 
-0.0036847634223 -0.0076446952208 -0.011332687617 -0.014134427147 -0.014461798492 -0.010928346993 0.0030059629932 0.040201218402 0.13825307734 
0.46525189939 1.8331241552 1.6090773038 0.39972549247 0.11156413444 0.020242240979 -0.0082470565505 -0.011624527825 0.0008779790858 
0.023301086478 0.052393083041 0.0888131205 0.12661083416 0.16212666469 0.18970542119 0.20157748005 0.19699003699 0.17871393385 
0.15256391534 0.12467623936 0.098535385904 0.076238581435 0.0578182679 0.042925166104 0.031418734635 0.021979025702 0.014290262909 
0 0 
Abscissas 1 128 double
0 0.503102305 1.00620461 1.509308337 2.0124121394 2.5155136524 3.0186151225 3.5217157059 4.0248162394 
4.5279196836 5.0310233227 5.5341273025 6.0372313117 6.5403347815 7.0434381943 7.5465373147 8.0496358914 8.5527399219 
9.0558447611 9.5589451204 10.062044715 10.565146275 11.068248216 11.571351189 12.074454387 12.577557259 13.080660051 
13.583761341 14.08686223 14.589966137 15.093070927 15.596173385 16.099275097 16.602376516 17.105477832 17.608579836 
18.111682102 18.614784874 19.117887855 19.620998562 20.124112704 20.627200184 21.130274701 21.633384191 22.136511226 
22.639621416 23.142721576 23.645822469 24.14892378 24.652026313 25.155129516 25.658234626 26.161340867 26.66444579 
27.167549868 27.670650627 28.173749118 28.676852025 29.179958169 29.68305949 30.18615703 30.689255084 31.192353569 
31.695452466 32.19855173 32.701649995 33.204747311 33.707862245 34.210995034 34.714098907 35.217171479 35.720267897 
36.223391925 36.726500575 37.229590189 37.732691101 38.235806985 38.738918127 39.242022544 39.745128925 40.248238291 
40.751348269 41.254459244 41.75756141 42.26064819 42.763735527 43.266823907 43.769922742 44.273042621 44.776153859 
45.279246364 45.782344274 46.28545485 46.78855916 47.291647556 47.794741504 48.297850787 48.800961569 49.304076866 
49.807183879 50.310263543 50.813351154 51.316467659 51.819580762 52.322680178 52.825778788 53.32887378 53.831970819 
54.33507817 54.838184725 55.341286738 55.844387394 56.347479162 56.850575276 57.353704612 57.856828369 58.359901396 
58.862976831 59.366079015 59.869181935 60.372295493 60.875408991 61.378521429 61.881633757 62.384740561 62.88784654 
63.390936918 63.894027296 
ParallelTransportNormals 3 128 double
0.33906795277 0 0.94076188454 0.31365835104 0.0094538279185 0.94904422974 0.2882487493 0.018907655837 0.95732657494 
0.25917213254 0.024132425201 0.96505819683 0.22990093182 0.0291327867 0.97276059551 0.20286899172 0.026839007209 0.97843327268 
0.17587890601 0.024408891769 0.984068012 0.16818920348 0.021652375829 0.98549000501 0.16158676653 0.018877472479 0.98667467765 
0.17172670074 0.027233234021 0.98465788445 0.18298782221 0.036334383385 0.98242669852 0.19749177793 0.053666167476 0.97854574434 
0.21227578209 0.071708742233 0.97452231756 0.22334190724 0.088687215877 0.97048228378 0.2340140525 0.1055529278 0.96644049017 
0.24036789689 0.11682994581 0.96354591008 0.24617471265 0.12739900582 0.96079665535 0.24686495459 0.1286498986 0.96047221447 
0.24679645504 0.1285189917 0.96050735148 0.23887186739 0.1135927794 0.96417372008 0.22960596051 0.096140471756 0.96846007164 
0.20719237822 0.055307234135 0.97535122639 0.18222710455 0.0099362424423 0.98274791948 0.138592044 -0.069688274057 0.98298268893 
0.090880809857 -0.15679136082 0.98165379596 0.032508456296 -0.27585689639 0.94975777273 -0.028455869211 -0.4026932642 0.91043015239 
-0.06984906689 -0.51736527573 0.84173633851 -0.10599504305 -0.6287758977 0.76516914482 -0.11851483692 -0.69948596522 0.69971283449 
-0.12412820076 -0.75829840461 0.63750446907 -0.12269762363 -0.79118609113 0.59780677131 -0.11901415746 -0.81578217046 0.56530874157 
-0.11578283731 -0.82839450562 0.5478500575 -0.11270920291 -0.83682751444 0.53563633965 -0.11205861789 -0.83878452767 0.53280632447 
-0.11232756523 -0.83828394035 0.5335373668 -0.11584991135 -0.83302536833 0.54081890662 -0.12071338398 -0.82580544458 0.55080071355 
-0.13230604014 -0.81075611649 0.56938344034 -0.14689068841 -0.79222560591 0.59179038804 -0.17381601099 -0.7612527041 0.62211759067 
-0.20674220601 -0.7242294682 0.65629615818 -0.33273959952 -0.6020777562 0.68832358332 -0.50542679016 -0.43722076756 0.71927187333 
-0.69125973872 -0.28789026919 0.58859924207 -0.8849185986 -0.14780297585 0.36171070573 -0.96778755817 -0.09838471558 0.20036815129 
-0.98736402844 -0.10076421655 0.076470962772 -0.99330348187 -0.10706303345 0.0034593816753 -0.99177851547 -0.11550714501 -0.041699220883 
-0.98947417724 -0.12232125176 -0.073695755833 -0.98670778923 -0.12816901187 -0.09788917278 -0.98414109812 -0.1327476485 -0.11672023581 
-0.98170208061 -0.13651488762 -0.13212294793 -0.97951878693 -0.1393480419 -0.14496109486 -0.97751027185 -0.14154278071 -0.15604644802 
-0.97564478439 -0.14295778487 -0.16614496145 -0.97388413113 -0.14380127099 -0.17552015609 -0.97217461556 -0.14368379197 -0.1848211814 
-0.97050520504 -0.14281266977 -0.19406403894 -0.96902234567 -0.14082864313 -0.20273404722 -0.96769597112 -0.13791107813 -0.21092353199 
-0.96670530251 -0.13469789359 -0.21750106188 -0.96601422896 -0.13122088842 -0.22264003008 -0.96560925816 -0.12882843002 -0.22582994176 
-0.96547576876 -0.1274650923 -0.22717040402 -0.96546134231 -0.12804288735 -0.22689592431 -0.96556758597 -0.13058801744 -0.22498470343 
-0.96561802901 -0.13553450696 -0.22170586934 -0.96560806975 -0.14308038748 -0.21694663983 -0.96530628449 -0.15364973394 -0.21068122331 
-0.96466661103 -0.16771977409 -0.2026718813 -0.96331215253 -0.18548077737 -0.19279253685 -0.96107284075 -0.20781093175 -0.18059826174 
-0.95728210047 -0.23481564331 -0.16572806871 -0.95143582994 -0.2680138041 -0.14731247854 -0.94253724824 -0.30649635377 -0.12516980787 
-0.92930971149 -0.35247351348 -0.097741187266 -0.91071752991 -0.40331010115 -0.065456196265 -0.88397411228 -0.46153028 -0.025792259831 
-0.84975473165 -0.52157410745 0.018753291551 -0.8033594769 -0.58458805606 0.071249381106 -0.75031889041 -0.64405144118 0.12611484861 
-0.68567343494 -0.69731440989 0.18511800581 -0.61923218549 -0.74341860016 0.24236477261 -0.54942697941 -0.77611266637 0.29632139525 
-0.48250724857 -0.80259838079 0.34619973524 -0.42139483218 -0.81658915137 0.38787011371 -0.36471273128 -0.827156746 0.42560874653 
-0.31763518701 -0.83030317901 0.45482368081 -0.27458629649 -0.83208704947 0.48110184075 -0.24097786707 -0.83067798759 0.50049817226 
-0.21062343121 -0.8289710241 0.51781444315 -0.18853280367 -0.82650751276 0.52984821367 -0.16909123082 -0.82421458734 0.54036097148 
-0.15696702726 -0.82239286406 0.54667230163 -0.14706990799 -0.82089502857 0.55181162543 -0.14388487247 -0.82037334019 0.55341870537 
-0.14255019308 -0.8201480983 0.55409790906 -0.14732392685 -0.82090148839 0.55171399887 -0.15349148479 -0.82183012058 0.54860997565 
-0.16472696608 -0.82339593036 0.54288763248 -0.1768192714 -0.82500963698 0.5366377981 -0.19235896353 -0.826816054 0.52826563032 
-0.20822514993 -0.82859474564 0.51955425849 -0.2255551421 -0.8302491332 0.50932209773 -0.2428446974 -0.83185825824 0.49890761506 
-0.25993059829 -0.83323942512 0.48757489453 -0.27692467395 -0.83458693683 0.47608706087 -0.29339440331 -0.83574226866 0.46371349041 
-0.30995052159 -0.83686843156 0.45106126964 -0.32707286909 -0.83780340916 0.43658265815 -0.34448486665 -0.83868042422 0.42164659529 
-0.3641108885 -0.8391143859 0.40321387026 -0.38431803365 -0.83939532598 0.38400585528 -0.40981042538 -0.83828455288 0.35774667128 
-0.43594385381 -0.83681960966 0.33057919806 -0.46919728299 -0.83142089543 0.29332334758 -0.50348675594 -0.82515584044 0.25458203829 
-0.5527544196 -0.80636600872 0.19436529915 -0.60220218831 -0.78646134957 0.13356697865 -0.65486026079 -0.74668531621 0.062402191928 
-0.70759502786 -0.70608319243 -0.0090867574886 -0.76415928809 -0.62423294811 -0.096761709605 -0.81788391539 -0.54649174098 -0.18003521317 
-0.81788391539 -0.54649174098 -0.18003521317 -0.81788391539 -0.54649174098 -0.18003521317 
FrenetTangent 3 128 double
-0.95225248882 0.14510256152 0.26862696099 -0.95225248882 0.14510256152 0.26862696099 -0.95699955027 0.11544132078 0.26612997245 
-0.96262670632 0.068041302217 0.26214538996 -0.96646307851 0.0041448005226 0.25677215289 -0.96536285349 -0.074012625292 0.25019331005 
-0.95631357298 -0.16295163413 0.24271612032 -0.93717729789 -0.25801947405 0.23478642068 -0.90732706819 -0.35390849896 0.22695013923 
-0.86788561126 -0.44551468147 0.21975266635 -0.82142738616 -0.52880080246 0.21360421482 -0.77129199838 -0.60130753158 0.20865738833 
-0.7208336497 -0.66217953472 0.2047366925 -0.67286909501 -0.71183797554 0.20133026987 -0.62941360623 -0.75152079845 0.19762338369 
-0.59164549935 -0.78286686217 0.19254890086 -0.55998837951 -0.80761726252 0.1848441833 -0.53423344919 -0.82742238516 0.17310926695 
-0.51365433198 -0.84372099615 0.1558656726 -0.49709215092 -0.85765595969 0.13162692845 -0.48302396537 -0.86999394421 0.098986796684 
-0.4696193292 -0.88104392044 0.056738839508 -0.45480168487 -0.8905835345 0.0040491377377 -0.43635231586 -0.89781920142 -0.059307149729 
-0.41209237874 -0.90143354832 -0.13265530271 -0.3801658921 -0.89978715587 -0.21414240267 -0.3394260919 -0.89130323124 -0.3006135029 
-0.28978583217 -0.87499712295 -0.38781981164 -0.23236652958 -0.85095796622 -0.47103750982 -0.16930890648 -0.82053463595 -0.5459463393 
-0.10326018168 -0.78610429659 -0.60940739228 -0.0367629647 -0.75052885354 -0.65981431057 0.028230682218 -0.71657882814 -0.69693458204 
0.090560300659 -0.68653513514 -0.72143491748 0.14983746987 -0.66203601705 -0.73434123182 0.20631210528 -0.64411134121 -0.73658393639 
0.26069627852 -0.63329473206 -0.72868047367 0.31401633288 -0.6297543865 -0.71049500728 0.36748548515 -0.63338290583 -0.68101432644 
0.42237524472 -0.64380983522 -0.63805019295 0.47983538324 -0.66026818971 -0.57775766775 0.54045500606 -0.68114863604 -0.49390780724 
0.60315597212 -0.70288124853 -0.37704220422 0.66261295015 -0.71756342763 -0.21458519433 0.70465579785 -0.70953667019 0.0042332279125 
0.70395681364 -0.65610998972 0.27196412616 0.63870021649 -0.54471266122 0.54346126832 0.51948584495 -0.39618202261 0.75708273118 
0.38386026048 -0.24992839295 0.88892468681 0.26087402478 -0.13003742794 0.95657462361 0.16009315065 -0.040936050061 0.98625271757 
0.080585396031 0.02119367603 0.99652236405 0.018562389794 0.061215231364 0.99795196935 -0.029670685672 0.082859189376 0.99611947333 
-0.067029340005 0.088550733082 0.99381378298 -0.095671027712 0.079741613027 0.99221385276 -0.11714766641 0.057284779779 0.99146098171 
-0.13254953567 0.02178585806 0.99093692886 -0.14262304079 -0.026093594215 0.98943306624 -0.14786284963 -0.085334025747 0.98531958356 
-0.14860682153 -0.15430160383 0.97678402303 -0.14513847515 -0.23061590627 0.96215961608 -0.13778032462 -0.31117948237 0.94031054014 
-0.12695900765 -0.39246260041 0.91096351061 -0.11321563706 -0.47096101224 0.87485881402 -0.097152636133 -0.54369096565 0.83364350844 
-0.079344998343 -0.60855759478 0.7895327891 -0.060247582522 -0.6644636328 0.74488811877 -0.040129731393 -0.7111860982 0.70185749151 
-0.019052182132 -0.74912196089 0.66215806426 0.0031215579544 -0.77901316979 0.62699979041 0.026689760908 -0.80170618311 0.59712214213 
0.052070492204 -0.81798635495 0.57287606597 0.079756938347 -0.82847876087 0.55431198217 0.11026859121 -0.83359566667 0.54125696513 
0.14410260083 -0.83351397529 0.53337500263 0.18167831122 -0.82818415513 0.53019241453 0.22327735272 -0.81734652138 0.53112323217 
0.26898526664 -0.80057614881 0.53546685825 0.3186150925 -0.77736076167 0.54239715067 0.37165055873 -0.74719217189 0.55098068973 
0.42721275183 -0.70969740717 0.5601953721 0.4840618982 -0.66478969058 0.56898044431 0.54067198859 -0.61280845884 0.57631553295 
0.59537650074 -0.55460401676 0.5813271084 0.64655985268 -0.49153959256 0.58339453704 0.69286151738 -0.42540460511 0.58221459934 
0.73334556836 -0.35822046636 0.57782555745 0.76758343979 -0.29199558896 0.57057360524 0.7956272853 -0.22854788325 0.56101968588 
0.81792048491 -0.16935018693 0.54984233609 0.83516603367 -0.11545391377 0.53774351692 0.84818371634 -0.067511772286 0.52538228361 
0.85780025314 -0.025830717165 0.51333371189 0.86476842382 0.009562209508 0.50207981169 0.86971873348 0.038852638551 0.4920160537 
0.87314340415 0.062358180947 0.48345842951 0.8753882768 0.080515120813 0.47666831252 0.87666764481 0.093826792132 0.4718584254 
0.87708455797 0.10282134036 0.46920192896 0.87664818165 0.10805929137 0.46884022348 0.87530448999 0.1100951169 0.47087271639 
0.87295777856 0.10947486118 0.47535247093 0.86949084326 0.10670924209 0.48228498954 0.86479206442 0.10224034917 0.49161122477 
0.85877077462 0.096449682515 0.50319997555 0.85137330072 0.089606666801 0.51685021824 0.84258880807 0.081859303388 0.53229987315 
0.8324571374 0.073211405872 0.54923146709 0.82106975215 0.063520399277 0.56728266409 0.80855316727 0.052508658803 0.58607560642 
0.79505980826 0.039734021838 0.60522814607 0.78073571038 0.024638178937 0.62437545649 0.76569972084 0.0065670000169 0.64316468499 
0.75001632929 -0.01519607178 0.66124472414 0.73365788464 -0.041338033859 0.67826047744 0.71649622965 -0.072433668272 0.69382023364 
0.69831277754 -0.1088169865 0.70747305827 0.67885152225 -0.15040293714 0.71870687157 0.65791347901 -0.19653447894 0.72699659747 
0.63549236698 -0.2458588966 0.73191724565 0.61194837202 -0.29629453386 0.73329989717 0.58812074488 -0.34518364621 0.73141112914 
0.56533875042 -0.38960873821 0.72704685432 0.54528320679 -0.42679934775 0.72146277877 0.52969007452 -0.45448995695 0.71614754344 
0.5200295508 -0.47111823015 0.71247237105 0.5200295508 -0.47111823015 0.71247237105 
FrenetNormal 3 128 double
-0.17321627625 -0.98129762024 -0.08397084109 -0.17321627625 -0.98129762024 -0.08397084109 -0.14234879791 -0.98623940523 -0.084075295385 
-0.093104989693 -0.99207317138 -0.084393622555 -0.026767327639 -0.99604934463 -0.084671206687 0.054392697535 -0.99494177405 -0.084452949617 
0.14683881709 -0.98565642897 -0.083185129788 0.24584038724 -0.96598110918 -0.080268304497 0.34596298465 -0.93522417696 -0.075268533191 
0.44190476625 -0.89446942452 -0.068151494218 0.52933564384 -0.84631895802 -0.059565069089 0.60537213013 -0.79429070333 -0.051252928331 
0.66857169141 -0.74218852942 -0.046562648658 0.7184760713 -0.69365641732 -0.051311886447 0.75462315327 -0.65182029673 -0.075327268076 
0.77433678345 -0.61829794621 -0.13457412642 0.76762159851 -0.58970551121 -0.25100695518 0.7109290783 -0.55056292884 -0.43756177509 
0.58587336838 -0.47762371922 -0.65469686044 0.4339157314 -0.3770740182 -0.81824954802 0.32253968543 -0.28188666818 -0.90360835411 
0.27064078341 -0.20483512302 -0.94063602883 0.26521853813 -0.13977883175 -0.95400262328 0.29063460859 -0.078258632209 -0.95362839239 
0.33548849945 -0.014754732307 -0.9419287471 0.39217811982 0.052866919399 -0.91836888621 0.45489109921 0.12419183581 -0.88184492728 
0.51968773504 0.1964156616 -0.83147191529 0.58351171764 0.26549349628 -0.76748112603 0.64496948163 0.326609471 -0.69089841599 
0.7039444954 0.37509388345 -0.60313077023 0.76163455967 0.40641002996 -0.5047213935 0.81964761021 0.41567882255 -0.39419400244 
0.87780180088 0.39718556962 -0.2677827882 0.93118886065 0.3441338052 -0.12024653805 0.96634748012 0.25233137755 0.050014233559 
0.96393869775 0.1289404596 0.23280151388 0.91405724856 -0.0018015033722 0.40558118908 0.82843601982 -0.10985198071 0.54920515603 
0.72839308718 -0.17788021047 0.66166618568 0.62664566857 -0.20298019145 0.75240564056 0.52336874736 -0.18746729176 0.83122871029 
0.41017629336 -0.13208371374 0.90239088034 0.27404205833 -0.034359076435 0.96110374265 0.10196668064 0.10716580622 0.98899862791 
-0.10640059229 0.28117479986 0.95373982085 -0.32270304014 0.45154974653 0.83184468159 -0.50222533541 0.57525358023 0.64564156534 
-0.62502835383 0.63828859093 0.44936313999 -0.70327423999 0.65320265945 0.2805915698 -0.7588150509 0.63391921669 0.14948627104 
-0.81068244955 0.58306803577 0.053156670748 -0.87350879219 0.48661830866 -0.013601898767 -0.95209049027 0.30111695314 -0.053406730555 
-0.99664797334 -0.052765450918 -0.062518992566 -0.84316664012 -0.5362936172 -0.038199124912 -0.5304794781 -0.84758694162 -0.013707651533 
-0.28739351084 -0.95765475128 -0.017388135848 -0.13827116448 -0.98932454772 -0.046021998637 -0.044460363012 -0.99468999234 -0.09281753749 
0.01970557823 -0.98801759219 -0.15307817513 0.067812478514 -0.97248848771 -0.22286230956 0.10693635474 -0.94848892959 -0.29821697886 
0.14109147407 -0.91620209605 -0.3750558827 0.17287219336 -0.87642708396 -0.44943383414 0.20458633427 -0.83062797975 -0.5178818312 
0.23862058438 -0.78059833117 -0.57769062835 0.27822523798 -0.72784793108 -0.62676000685 0.32759777263 -0.67296195679 -0.66317562084 
0.39229483208 -0.6147706449 -0.68422351531 0.4784309585 -0.54942275657 -0.68500981928 0.59048786106 -0.46934120741 -0.65653858757 
0.72385891787 -0.36428387121 -0.58593986738 0.85542146748 -0.22860235478 -0.46475270452 0.94882590664 -0.073852675307 -0.30704263749 
0.98590112088 0.074604001377 -0.14977724402 0.97965177356 0.19919967617 -0.024533478662 0.95205840616 0.2997592569 0.061067005463 
0.91701407114 0.38287134221 0.11177982219 0.87979134745 0.45549032773 0.13599906722 0.84122244418 0.52209147496 0.14058908625 
0.800524319 0.584914311 0.13052227197 0.75663086489 0.64461567278 0.10945487068 0.70887912744 0.70076663928 0.080103058275 
0.65709523022 0.75246899518 0.044902892058 0.60179600083 0.79862782176 0.0059309099697 0.54415535576 0.83825043105 -0.035087941624 
0.48563556392 0.87080855961 -0.076488898298 0.42786665137 0.89624482029 -0.11694165532 0.37260388543 0.91482911562 -0.15573706617 
0.32115675347 0.92733362248 -0.1921215561 0.27470745881 0.93459349478 -0.22598852094 0.23383781341 0.93768970821 -0.25701729152 
0.19906363386 0.93748658324 -0.28546904546 0.16997042627 0.93523259953 -0.31056406581 0.14596785273 0.9320514206 -0.33162257965 
0.12546434504 0.92962201084 -0.34649908381 0.10397392659 0.93159759709 -0.34830351661 0.072683762936 0.94370930047 -0.32269153509 
0.00063141612866 0.97657258654 -0.21518732429 -0.23479314035 0.94662630977 0.22084114403 -0.48299265036 0.15138450312 0.8624388859 
-0.43353882237 -0.27253460831 0.85893479192 -0.41308031811 -0.37826733646 0.82841926158 -0.41518145051 -0.40506185974 0.81458532575 
-0.42774226304 -0.40567882751 0.80775073217 -0.44406999521 -0.40135702296 0.80107077058 -0.46199126319 -0.3980969203 0.79251682303 
-0.47860245609 -0.40447179943 0.77932166176 -0.49309664028 -0.42173431026 0.76091778458 -0.50347364114 -0.4537840367 0.73525120925 
-0.50786760477 -0.50190890148 0.70011281279 -0.50516974383 -0.56321836028 0.65390259868 -0.49410028883 -0.63417957679 0.59471099617 
-0.47585605027 -0.70676136118 0.52349727579 -0.45386190871 -0.77266801801 0.4438395 -0.43255570028 -0.82643640112 0.36041426311 
-0.4164097778 -0.86567443247 0.27786808727 -0.4080912147 -0.89098742706 0.19900493788 -0.40824392983 -0.90427551114 0.12499077448 
-0.41604273893 -0.90759678859 0.056360524592 -0.42924219549 -0.9031644168 -0.0067211479992 -0.4456602324 -0.89297682106 -0.063082123582 
-0.46246858516 -0.87956715881 -0.11173370518 -0.47749737907 -0.86553685724 -0.151136368 -0.48926207146 -0.85341683531 -0.17972849147 
-0.49645496823 -0.84548080498 -0.19670961576 -0.49645496823 -0.84548080498 -0.19670961576 
FrenetBinormal 3 128 double
0.25141861342 -0.1264920043 0.95957722653 0.25141861342 -0.1264920043 0.95957722653 0.2527621026 -0.11834330154 0.96026360051 
0.25432515641 -0.10564659874 0.96133111413 0.25540678934 -0.088704699421 0.96275586119 0.25517836028 -0.067919051389 0.9645055764 
0.25278985724 -0.04391092069 0.96652424653 0.24751003278 -0.017505648134 0.96872717313 0.23888743077 0.010223169989 0.97099345117 
0.22692453224 0.037962049437 0.97317220443 0.21227535285 0.064139945573 0.97510268277 0.19655339555 0.086784394124 0.97664488512 
0.18278605775 0.10331723283 0.97770895797 0.17617978306 0.11012479873 0.97817851783 0.18542494124 0.10171917351 0.97737955826 
0.22440621403 0.069477520325 0.97201580505 0.31172118362 0.0013294093768 0.95017268765 0.45735595262 -0.11069172474 0.88236776612 
0.62682662951 -0.24497033187 0.73964715442 0.75140969619 -0.34963043289 0.55959094781 0.81403685433 -0.40453732008 0.41676558934 
0.84036376171 -0.4263850169 0.33464094991 0.85018501191 -0.43280809405 0.2997709113 0.85154458529 -0.43335466774 0.29508566759 