# vtk DataFile Version 4.2
vtk output
ASCII
DATASET POLYDATA
POINTS 128 float
0 0 0 -0.226745 0.151024 0.194014 -0.681904 0.43588 0.577147 
-1.08365 0.644149 0.899843 -1.43829 0.78184 1.16461 -1.82586 0.909261 1.43806 
-2.24484 1.0207 1.71366 -2.67582 1.09634 1.96914 -3.11845 1.13325 2.20053 
-3.57631 1.13242 2.4083 -4.04519 1.09009 2.58862 -4.51839 1.00178 2.73745 
-4.98876 0.866935 2.85637 -5.44947 0.686976 2.94948 -5.89624 0.467179 3.02448 
-6.32625 0.214269 3.09004 -6.74052 -0.0641396 3.15316 -7.14152 -0.360335 3.21984 
-7.53261 -0.667873 3.29358 -7.91749 -0.980988 3.37616 -8.30001 -1.29522 3.46461 
-8.68415 -1.60697 3.55323 -9.07431 -1.91489 3.63094 -9.47394 -2.21855 3.68254 
-9.87906 -2.51721 3.67955 -10.2807 -2.81 3.59115 -10.6569 -3.09583 3.41147 
-10.9827 -3.37472 3.1483 -11.2546 -3.65538 2.82856 -11.4788 -3.95005 2.48616 
-11.6619 -4.26702 2.14112 -11.8106 -4.61201 1.80625 -11.928 -4.98553 1.48963 
-12.0156 -5.38515 1.19645 -12.0742 -5.80585 0.926354 -12.1045 -6.24131 0.675969 
-12.107 -6.68605 0.440696 -12.0823 -7.1352 0.215386 -12.0308 -7.58499 -0.00400672 
-11.953 -8.03228 -0.220752 -11.8492 -8.47465 -0.436677 -11.7196 -8.91014 -0.652565 
-11.5642 -9.33778 -0.86715 -11.3825 -9.75729 -1.07762 -11.1735 -10.1687 -1.27805 
-10.9353 -10.5725 -1.4601 -10.6647 -10.9689 -1.61144 -10.3575 -11.358 -1.71584 
-10.0158 -11.729 -1.74191 -9.64738 -12.0637 -1.64945 -9.28105 -12.3393 -1.42797 
-8.9594 -12.5319 -1.09053 -8.70211 -12.6426 -0.667452 -8.51115 -12.6912 -0.20033 
-8.38344 -12.6935 0.286949 -8.31244 -12.6622 0.784406 -8.29316 -12.6076 1.28476 
-8.32192 -12.5383 1.78273 -8.39495 -12.4622 2.2749 -8.50842 -12.3868 2.7594 
-8.65837 -12.3201 3.23513 -8.84072 -12.2702 3.70159 -9.05069 -12.2467 4.15838 
-9.28281 -12.2603 4.60512 -9.52924 -12.3231 5.03988 -9.77978 -12.4486 5.45921 
-10.0202 -12.6456 5.85685 -10.2327 -12.918 6.224 -10.4036 -13.2595 6.55443 
-10.5242 -13.6538 6.84482 -10.5933 -14.0852 7.09615 -10.6174 -14.539 7.31378 
-10.6047 -15.0051 7.50323 -10.564 -15.4781 7.66994 -10.5035 -15.9549 7.81851 
-10.4299 -16.434 7.9526 -10.3489 -16.915 8.07541 -10.2645 -17.3974 8.18959 
-10.1797 -17.8812 8.2977 -10.0959 -18.3659 8.40223 -10.0131 -18.8509 8.50609 
-9.9299 -19.3354 8.61279 -9.84373 -19.8176 8.72672 -9.75085 -20.2953 8.85347 
-9.64629 -20.7648 9.00048 -9.52347 -21.2204 9.17783 -9.375 -21.6498 9.39707 
-9.19257 -22.031 9.67153 -8.97271 -22.3438 10.0029 -8.7196 -22.5718 10.3746 
-8.43777 -22.7143 10.7674 -8.13124 -22.7947 11.1606 -7.80242 -22.8348 11.5395 
-7.45111 -22.851 11.8991 -7.07792 -22.8557 12.2365 -6.68529 -22.8557 12.5512 
-6.27612 -22.8559 12.8438 -5.85387 -22.8587 13.1172 -5.42174 -22.8655 13.3745 
-4.98242 -22.8767 13.6191 -4.53815 -22.8921 13.8543 -4.09053 -22.9107 14.0828 
-3.64079 -22.9307 14.3069 -3.18963 -22.9496 14.5283 -2.73756 -22.9645 14.7481 
-2.28493 -22.9721 14.9672 -1.83209 -22.9693 15.186 -1.37956 -22.9534 15.4049 
-0.927963 -22.922 15.6241 -0.478136 -22.8743 15.844 -0.0309082 -22.81 16.065 
0.413025 -22.7309 16.2878 0.853252 -22.6395 16.5131 1.29006 -22.5407 16.742 
1.724 -22.4401 16.9754 2.15602 -22.3448 17.2145 2.58701 -22.2626 17.4603 
3.01752 -22.2033 17.7141 3.44693 -22.1763 17.9763 3.87121 -22.1888 18.2454 
4.28643 -22.2483 18.5201 4.69126 -22.3641 18.8018 5.08101 -22.5373 19.0876 
5.43779 -22.7392 19.3597 5.75822 -22.9598 19.6134 6.10369 -23.281 19.907 
6.47842 -23.7066 20.2438 6.66198 -23.9299 20.4124 
LINES 1 129
128 0 1 2 3 4 5 6 7 8 9 10 11 12 13 14 15 16 17 18 19 20 21 22 23 24 25 26 27 28 29 30 31 32 33 34 35 36 37 38 39 40 41 42 43 44 45 46 47 48 49 50 51 52 53 54 55 56 57 58 59 60 61 62 63 64 65 66 67 68 69 70 71 72 73 74 75 76 77 78 79 80 81 82 83 84 85 86 87 88 89 90 91 92 93 94 95 96 97 98 99 100 101 102 103 104 105 106 107 108 109 110 111 112 113 114 115 116 117 118 119 120 121 122 123 124 125 126 127 

CELL_DATA 1
FIELD FieldData 2
Length 1 1 double
59.126896793 
Tortuosity 1 1 double
0.83903640996 
POINT_DATA 128
SCALARS MaximumInscribedSphereRadius float
LOOKUP_TABLE default
1.116 1.16004 1.20407 1.23363 1.26183 1.2554 1.24812 1.19272 1.13472 
1.05137 0.966173 0.947024 0.9339 0.979327 1.0312 1.14164 1.25973 1.15773 
1.02213 0.968147 0.928551 1.18289 1.4963 1.60323 1.6634 1.51082 1.30491 
1.09912 0.893366 0.999135 1.1954 1.32632 1.43644 1.48324 1.50808 1.45446 
1.37123 1.28625 1.20056 1.11576 1.03136 1.01173 1.02331 1.08631 1.17606 
1.3009 1.44538 1.54757 1.62437 1.57918 1.45659 1.46339 1.55217 1.65305 
1.7619 1.8661 1.96705 2.07265 2.18172 2.25449 2.29831 2.29058 2.2389 
2.218 2.22512 2.22973 2.23189 2.21872 2.18988 2.17375 2.1713 2.1859 
2.21995 2.27618 2.35946 2.42242 2.45876 2.48 2.48 2.43317 2.31558 
2.18564 2.03562 1.92566 1.88596 1.84432 1.79904 1.746 1.67735 1.65617 
1.73501 1.74183 1.58602 1.46884 1.44607 1.47714 1.65127 1.74749 1.61765 
1.48147 1.3251 1.18198 1.0854 1.01141 1.02565 1.05205 1.13152 1.20112 
1.22215 1.24044 1.24332 1.24731 1.25846 1.27475 1.32983 1.38661 1.45871 
1.52591 1.53837 1.5525 1.59034 1.6294 1.69157 1.75144 1.71739 1.6807 
1.61535 1.55 
TEXTURE_COORDINATES TCoords 2 float
0 0 0.00787402 0 0.015748 0 0.023622 0 0.0314961 
0 0.0393701 0 0.0472441 0 0.0551181 0 0.0629921 0 
0.0708661 0 0.0787402 0 0.0866142 0 0.0944882 0 0.102362 
0 0.110236 0 0.11811 0 0.125984 0 0.133858 0 
0.141732 0 0.149606 0 0.15748 0 0.165354 0 0.173228 
0 0.181102 0 0.188976 0 0.19685 0 0.204724 0 
0.212598 0 0.220472 0 0.228346 0 0.23622 0 0.244094 
0 0.251969 0 0.259843 0 0.267717 0 0.275591 0 
0.283465 0 0.291339 0 0.299213 0 0.307087 0 0.314961 
0 0.322835 0 0.330709 0 0.338583 0 0.346457 0 
0.354331 0 0.362205 0 0.370079 0 0.377953 0 0.385827 
0 0.393701 0 0.401575 0 0.409449 0 0.417323 0 
0.425197 0 0.433071 0 0.440945 0 0.448819 0 0.456693 
0 0.464567 0 0.472441 0 0.480315 0 0.488189 0 
0.496063 0 0.503937 0 0.511811 0 0.519685 0 0.527559 
0 0.535433 0 0.543307 0 0.551181 0 0.559055 0 
0.566929 0 0.574803 0 0.582677 0 0.590551 0 0.598425 
0 0.606299 0 0.614173 0 0.622047 0 0.629921 0 
0.637795 0 0.645669 0 0.653543 0 0.661417 0 0.669291 
0 0.677165 0 0.685039 0 0.692913 0 0.700787 0 
0.708661 0 0.716535 0 0.724409 0 0.732283 0 0.740157 
0 0.748031 0 0.755906 0 0.76378 0 0.771654 0 
0.779528 0 0.787402 0 0.795276 0 0.80315 0 0.811024 
0 0.818898 0 0.826772 0 0.834646 0 0.84252 0 
0.850394 0 0.858268 0 0.866142 0 0.874016 0 0.88189 
0 0.889764 0 0.897638 0 0.905512 0 0.913386 0 
0.92126 0 0.929134 0 0.937008 0 0.944882 0 0.952756 
0 0.96063 0 0.968504 0 0.976378 0 0.984252 0 
0.992126 0 1 0 
FIELD FieldData 7
Curvature 1 128 double
0 0.027791452122 0.052277846105 0.075835746397 0.098008629295 0.11824243236 0.13585671125 0.15006713293 0.16008309182 
0.16526965139 0.16535455004 0.16056160499 0.15164805729 0.13980663568 0.12647303439 0.11322606048 0.10175897463 0.093937770732 
0.091643914147 0.096105479052 0.10706978915 0.12287611956 0.14105805051 0.15885252946 0.17351487104 0.18291033146 0.18611200305 
0.18369957554 0.17750570995 0.16977460573 0.16229377044 0.1559024449 0.15054782228 0.14585251513 0.1414310805 0.13735692855 
0.13396372719 0.13183833582 0.13164121281 0.13409696374 0.14002647653 0.15057671121 0.16715203405 0.19148160564 0.22530475889 
0.2699402129 0.32536378593 0.3883549829 0.45050755202 0.49801971979 0.5164735507 0.49957812826 0.45355059448 0.39235914423 
0.32911901936 0.27192509028 0.22412287324 0.18663827311 0.15979487172 0.1441721444 0.14030171329 0.14745000191 0.16323137854 
0.18428884123 0.20694264036 0.22745987906 0.24219176947 0.24828119897 0.24442550903 0.23121722016 0.21078375159 0.18594245086 
0.15936543145 0.13307198863 0.10837230566 0.086094549775 0.067030087582 0.052791913218 0.046640435726 0.051607571104 0.066229376382 
0.087139906922 0.11212238035 0.13963728811 0.16783626076 0.19412150711 0.21517754797 0.22764992273 0.22943856161 0.22048990807 
0.20303783553 0.18054487535 0.15648457776 0.13353008232 0.11325928585 0.096165476262 0.082101414537 0.070454007109 0.060532240315 
0.051833251509 0.044161157184 0.037612171616 0.03262535779 0.029609561014 0.028559236715 0.028732303635 0.029035260117 0.028433492041 
0.026169419877 0.022066037815 0.016849398 0.014436828208 0.020847807912 0.0339603504 0.050238186901 0.068029637896 0.086095575633 
0.10306613891 0.11734859263 0.12733068173 0.13149891765 0.12880856333 0.11897224477 0.10250728691 0.080572596108 0.054610348324 
0.026187679669 0 
Torsion 1 128 double
0 0 -0.00028397568499 0.0015677848163 0.0051070329832 0.010408467376 0.017339094967 0.02541965558 0.033903253825 
0.041648613814 0.047148910892 0.048302074626 0.041957259307 0.023828437471 -0.0117305211 -0.070284054026 -0.15176397051 -0.23874181014 
-0.28885472924 -0.26606515592 -0.18635383061 -0.09295719639 -0.011184951795 0.054858476338 0.10942190814 0.15738143958 0.20153948645 
0.24131850294 0.2722409609 0.28711161658 0.27979762705 0.24975630609 0.20330812585 0.15029189088 0.10007290182 0.059904415363 
0.035732164348 0.0312889889 0.047395152023 0.080555725713 0.12285760157 0.16391137578 0.19451585077 0.20998192989 0.21172165333 
0.20411139888 0.19277321184 0.18181267757 0.17384035968 0.17054070834 0.1731600479 0.18266762443 0.1996587387 0.22512841367 
0.26107828131 0.31077221318 0.37840978072 0.46597507438 0.56444904451 0.64063525966 0.64801771308 0.57824310997 0.47306724212 
0.37322540147 0.29362977953 0.23376482611 0.18897819113 0.15470612222 0.128146834 0.10720383101 0.091001155884 0.080379564113 
0.077612892566 0.088247617687 0.12255208848 0.20141674546 0.36256572061 0.63427666594 0.85378406245 0.69791529192 0.39670940018 
0.19414090672 0.081450414214 0.017337543627 -0.02240738576 -0.05018032643 -0.072661933132 -0.093716284836 -0.11545989046 -0.13937774648 
-0.1661211505 -0.19515220322 -0.22467014369 -0.25069221864 -0.26733931049 -0.26806796438 -0.24682273716 -0.20226407473 -0.1348391554 
-0.043957691756 0.069430779544 0.20394084461 0.3405632266 0.42850513611 0.42973098443 0.37130797345 0.31067242165 0.28686180285 
0.32926216095 0.50441997215 1.0278357557 1.7180300715 1.0043368756 0.44764440126 0.23205019885 0.13695059517 0.087734660352 
0.059265055522 0.04143079753 0.029447546123 0.021156227737 0.015334032029 0.011026612962 0.0076068020058 0.0052240410172 0.0039062634608 
0 0 
Abscissas 1 128 double
0 0.50289902101 1.005798042 1.5086995501 2.0116012887 2.5144949363 3.0173883854 3.5202900832 4.0231922252 
4.5260930174 5.028993711 5.5318903566 6.0347866329 6.5376861423 7.0405860077 7.5434852929 8.0463845023 8.5492849564 
9.0521856006 9.5550832773 10.057980431 10.560877418 11.063774371 11.566672938 12.069571871 12.572459564 13.07534444 
13.578248587 14.081157849 14.584061694 15.086963966 15.589861147 16.092756708 16.595657081 17.098559124 17.601459115 
18.104358331 18.607255795 19.110152539 19.613052608 20.115954157 20.61885234 21.121748901 21.624640606 22.127529784 
22.630437432 23.13335543 23.636266261 24.139172789 24.642062896 25.144942584 25.647835918 26.1507379 26.653637871 
27.156536516 27.659436246 28.162336735 28.665236122 29.168134688 29.671034828 30.173936223 30.676834815 31.179731018 
31.682628937 32.185528419 32.688425205 33.191319379 33.694217014 34.19711819 34.700016294 35.202911093 35.705808415 
36.208708619 36.71159691 37.214470665 37.717358708 38.220265452 38.723176797 39.226094608 39.728998806 40.231882435 
40.734770282 41.237664994 41.740556521 42.243442465 42.746343051 43.249271278 43.752183192 44.25506226 44.757949291 
45.260853099 45.763757718 46.266664171 46.769573435 47.272489571 47.775398187 48.278286823 48.781178542 49.284079211 
49.786981384 50.289888352 50.792790628 51.295676418 51.798564729 52.301462881 52.804363316 53.307273708 53.81018164 
54.313077478 54.815972571 55.318863492 55.821754251 56.324643959 56.827535066 57.330436745 57.833339865 58.336256047 
58.839171172 59.342074477 59.844976694 60.347863492 60.850751371 61.353659928 61.856568634 62.359483425 62.862395916 
63.365283539 63.868171163 
ParallelTransportNormals 3 128 double
0.64556181748 0 0.76370802 0.6314616104 0.0076006603202 0.77509956555 0.61736140331 0.01520132064 0.78649111111 
0.59346113331 0.024215716155 0.80390282954 0.56865244911 0.033361157474 0.82187258629 0.52957207134 0.041474530616 0.84591413676 
0.49014150863 0.049562579873 0.87010467101 0.43685143402 0.051637652767 0.89601702134 0.38281491436 0.053388879017 0.92202210516 
0.32392720394 0.045212986696 0.94285748674 0.26468505585 0.036311799317 0.96331515958 0.2216408877 0.022374265779 0.97382371536 
0.18007429135 0.0079773192042 0.98342471754 0.16619302384 0.0012607187747 0.98601341403 0.15536097757 -0.004609979669 0.98782978552 
0.16201150964 0.0002593500628 0.98672726129 0.17094338711 0.0065301729471 0.98524384305 0.18323113691 0.016169094796 0.98279801298 
0.19603136072 0.026322357779 0.98020521336 0.19402276827 0.024673920676 0.98066834327 0.18940407313 0.020945395033 0.98167009084 
0.14362162298 -0.014326393737 0.9871861511 0.08956571482 -0.0559380284 0.99360953812 -0.02648172351 -0.1429416236 0.97597017745 
-0.15657127764 -0.24022725514 0.95288020299 -0.27074894651 -0.33442272764 0.88839751062 -0.38093764215 -0.42784352375 0.81353801867 
-0.42543866927 -0.4737157209 0.76911426158 -0.45250489324 -0.50696758183 0.73276874897 -0.45534081511 -0.50754890132 0.7313630802 
-0.45113798797 -0.49863963585 0.74010721436 -0.44566600541 -0.478215836 0.75616307051 -0.43979013101 -0.45412768867 0.77454578498 
-0.43741636927 -0.43794799274 0.78526114209 -0.43625751464 -0.42451179329 0.7933166399 -0.43576497595 -0.42499023341 0.79338085753 
-0.43552395347 -0.4307210725 0.79042858366 -0.43321425834 -0.44616524567 0.78282740074 -0.43005575368 -0.46559495543 0.77331869595 
-0.42432897025 -0.48815240355 0.76220378592 -0.41745897635 -0.51210209276 0.75037391043 -0.41026577578 -0.53160555665 0.7407353283 
-0.4029168892 -0.54896731007 0.7321522743 -0.40079294862 -0.55423705448 0.72951002408 -0.4013867439 -0.55321718626 0.72995786042 
-0.41967776264 -0.52981750219 0.73570202669 -0.44788697385 -0.493875324 0.74441445631 -0.51463769669 -0.42809798454 0.73373302497 
-0.60452160215 -0.34441314211 0.71141111282 -0.70403952631 -0.27056845093 0.63922942271 -0.80966979146 -0.20296688236 0.53541400066 
-0.88222363203 -0.16652088284 0.42420270674 -0.9338178289 -0.14981733233 0.30830484706 -0.9639073017 -0.14585784064 0.20256054897 
-0.97982050503 -0.1502994431 0.10350964646 -0.98399706934 -0.15865854166 0.011696361046 -0.9799730447 -0.16975486125 -0.075059878438 
-0.96846378091 -0.18085034594 -0.15569777922 -0.95137313908 -0.19194520808 -0.23177353303 -0.92993740739 -0.20034210277 -0.30180783046 
-0.90503821926 -0.20658845672 -0.36702650345 -0.87910838487 -0.20816618507 -0.42549176445 -0.85229994082 -0.20576398376 -0.47819984832 
-0.8292232136 -0.19905338424 -0.52103853759 -0.80954559247 -0.18841839732 -0.5548874989 -0.79791079057 -0.18061224734 -0.5750225707 
-0.79407322555 -0.17554855757 -0.58186249787 -0.79427703107 -0.17993067331 -0.58008849276 -0.79861526495 -0.19397609647 -0.56950220841 
-0.8014843174 -0.21122072733 -0.55911998788 -0.80277250212 -0.2319077678 -0.54895734397 -0.80300818169 -0.24872043163 -0.54147029172 
-0.80204209194 -0.26110926246 -0.5370382782 -0.801422576 -0.26851746408 -0.53443320344 -0.80122594136 -0.26984841793 -0.53405731681 
-0.80150347069 -0.26833479338 -0.53438579473 -0.80240171794 -0.26309739192 -0.53563634126 -0.80316155657 -0.25867839962 -0.53666500928 
-0.80372682153 -0.25540992005 -0.53738176236 -0.80336624231 -0.25741990718 -0.53690597049 -0.80160666108 -0.26740595081 -0.53462817696 
-0.79764016214 -0.28758791815 -0.52926179316 -0.7900830149 -0.32435862196 -0.51887028251 -0.77655936553 -0.37726761612 -0.4995880195 
-0.75257395069 -0.45847376073 -0.4647165614 -0.71514996476 -0.55263332789 -0.4094970362 -0.65235730794 -0.67124572645 -0.31586543475 
-0.58023672918 -0.77582305056 -0.21030843416 -0.48933505993 -0.85214177595 -0.080740512218 -0.40645487677 -0.90967050555 0.033399001448 
-0.34047631572 -0.92760789193 0.11503018385 -0.28390098284 -0.94065039559 0.18240145201 -0.24855803507 -0.94264030825 0.21757399163 
-0.2186626274 -0.94408175217 0.24631967824 -0.20208437519 -0.94418239944 0.25935416326 -0.1885315098 -0.94427122385 0.26979112609 
-0.1830157594 -0.94432864014 0.27332762105 -0.17894749463 -0.9443704093 0.27593896768 -0.17907972712 -0.94436677159 0.27586560165 
-0.17907094585 -0.94436838902 0.27586560078 -0.17861298247 -0.94438674606 0.27609929567 -0.1766815788 -0.94445725661 0.277054373 
-0.16957135843 -0.9447110752 0.28054495001 -0.16049115911 -0.94493389273 0.28498085252 -0.14372104612 -0.94503569602 0.29310688148 
-0.12548842371 -0.94489507485 0.30194368623 -0.10087395576 -0.94369660372 0.31388205137 -0.076002097114 -0.94217626753 0.32597465912 
-0.049865231415 -0.93907404993 0.33882532834 -0.024931799897 -0.9359318186 0.35112527898 -0.0067272566549 -0.93256585427 0.36034593888 
0.0091280879937 -0.92963079913 0.36837899369 0.0098438278164 -0.92947277396 0.36875842916 0.0076188927029 -0.92989941059 0.36749044078 
-0.016835260838 -0.93474563641 0.35376920777 -0.044261784851 -0.9396321932 0.33817353259 -0.098632503235 -0.94488434563 0.30558625618 
-0.15506168914 -0.94912635553 0.27144762974 -0.23448747526 -0.94208334695 0.2199777721 -0.31415786857 -0.93361369436 0.1680110878 
-0.39729253472 -0.90493905828 0.10900804787 -0.47936401896 -0.87572925432 0.050543910389 -0.54108076129 -0.83627359851 0.0023971233927 
-0.60251894109 -0.79660727745 -0.045625430975 -0.65258942452 -0.74834404109 -0.088578248422 -0.6984220991 -0.70416565385 -0.12789567397 
-0.6984220991 -0.70416565385 -0.12789567397 -0.6984220991 -0.70416565385 -0.12789567397 
FrenetTangent 3 128 double
-0.78307280174 0.28889064838 0.55076236297 -0.78307280174 0.28889064838 0.55076236297 -0.79273077392 0.27276657877 0.54513880213 
-0.80748759015 0.24686694189 0.53574294653 -0.82613204239 0.21153701077 0.52226233027 -0.84708909044 0.16731829823 0.50442507862 
-0.86851899038 0.11502465264 0.48212456133 -0.88846430675 0.055818753741 0.45553862884 -0.90505149008 -0.0087408417498 0.42521217997 
-0.9167302223 -0.076718215685 0.39207144108 -0.9225059992 -0.14591037924 0.35734135315 -0.9220975698 -0.21404498365 0.32236751814 
-0.91596222123 -0.27902240568 0.28837424712 -0.90517454911 -0.3391379073 0.25621185663 -0.89119094518 -0.39322672915 0.22616683821 
-0.87556950593 -0.44071097499 0.19786833202 -0.85970439841 -0.48156507689 0.17030391677 -0.84461133782 -0.51622233962 0.14193725408 
-0.83077533311 -0.54544850055 0.11089760654 -0.81805043258 -0.57020563091 0.075226512807 -0.8056120656 -0.5915138081 0.03317551198 
-0.79198206334 -0.61032246243 -0.016459137208 -0.77515944337 -0.6274186659 -0.07398415399 -0.75290172116 -0.64339415488 -0.13850256222 
-0.7231642813 -0.65868468169 -0.20776889169 -0.68460821516 -0.67366945515 -0.27835419332 -0.63698568448 -0.68877010463 -0.34618633816 
-0.58121227056 -0.70447312063 -0.40732041301 -0.51907633805 -0.72123827617 -0.4586666592 -0.45273684461 -0.73933383071 -0.49841231557 
-0.38425219772 -0.75868941128 -0.52606142774 -0.31529058617 -0.77884623049 -0.54220881173 -0.24704672666 -0.79902186752 -0.54820796242 
-0.18026597812 -0.81826924955 -0.54583844898 -0.1153294477 -0.83566505886 -0.53699443936 -0.052328866765 -0.85047158801 -0.52341166178 
0.0088724238626 -0.8622325609 -0.50643488329 0.068565734702 -0.87079670434 -0.48683861775 0.12714488015 -0.87627902625 -0.46472491606 
0.18504742738 -0.87897878943 -0.43949259077 0.24268464493 -0.87926719623 -0.4098699315 0.30037360326 -0.87744755963 -0.37398058581 
0.35823160027 -0.87358354731 -0.32942663285 0.41601522085 -0.86729119311 -0.27338127658 0.47287157702 -0.85749301583 -0.20272690854 
0.52695235796 -0.84216714184 -0.11434910429 0.57495559131 -0.8181642151 -0.0057779887362 0.61173660365 -0.78134510001 0.12360486415 
0.6304812088 -0.72743807583 0.27079012388 0.62416138021 -0.65391226055 0.42757610663 0.58841018486 -0.56234820987 0.58098015905 
0.52431610712 -0.4594722811 0.71692248027 0.43860479692 -0.3553004521 0.82546194392 0.34075524012 -0.2594851047 0.90363341393 
0.23949370454 -0.17868183479 0.95431418694 0.14097518915 -0.11616309117 0.98317451772 0.048774163468 -0.072810788314 0.99615243316 
-0.03531211868 -0.048286191866 0.99820914539 -0.11044280807 -0.041822930962 0.9930021292 -0.17614271438 -0.052613508856 0.98295755903 
-0.23195632056 -0.079898841364 0.96943924023 -0.27726486043 -0.12288301384 0.95290291325 -0.31121982186 -0.1805212461 0.93303499516 
-0.33280109853 -0.25122497899 0.90891662915 -0.34100625704 -0.33254472579 0.87927739537 -0.33518854469 -0.42096283422 0.84287539513 
-0.31548009051 -0.51194977353 0.79898669693 -0.28315847738 -0.60042709778 0.7478693582 -0.24074299096 -0.68161419397 0.69097388003 
-0.19166669212 -0.75192524726 0.63077119597 -0.1396686254 -0.80952302031 0.57023254438 -0.088141249164 -0.85431688181 0.5122243509 
-0.039663521534 -0.88751191212 0.45907451564 0.0041667737827 -0.91098747914 0.41241296153 0.042684143191 -0.92674981034 0.37324637031 
0.075985120301 -0.93657380627 0.34213413582 0.10474844309 -0.94181643033 0.31938937871 0.13007813314 -0.94335345304 0.30522768864 
0.15335863137 -0.94158167126 0.29984176916 0.1761329529 -0.93643203342 0.3034340615 0.19999078324 -0.92738420897 0.31616801795 
0.22645336834 -0.91347614181 0.33805356131 0.25683745658 -0.8933255107 0.36878727313 0.29208880505 -0.86522022143 0.40752680697 
0.33259922713 -0.82734349198 0.45263727244 0.37802393641 -0.77819697186 0.50150511112 0.42718581162 -0.71720476979 0.55057206663 
0.478179628 -0.64533697647 0.59572177245 0.52875502569 -0.56539572029 0.63304486593 0.57685063805 -0.48168575088 0.65971370971 
0.62105502011 -0.39910213358 0.67454291855 0.6607745344 -0.32204202919 0.67798668581 0.69606838199 -0.25365870457 0.67167407958 
0.72734371021 -0.19562343347 0.6578013374 0.75507897853 -0.14827791191 0.63864653528 0.77966030834 -0.11098805676 0.61628845102 
0.80134202084 -0.082488798196 0.59249182594 0.82027702606 -0.061158726494 0.56868726968 0.83657256075 -0.04525487681 0.54598383375 
0.85034171268 -0.033061169071 0.52519132778 0.86173005994 -0.022993229321 0.5068457509 0.87091699469 -0.013713967647 0.49123875606 
0.87809847761 -0.0041771550245 0.47846171737 0.88346832165 0.0063359944878 0.46844805455 0.88720054508 0.018177268828 0.46102579072 
0.88944402792 0.031328594352 0.45596912217 0.89033330806 0.045410090363 0.45303920829 0.89000855848 0.05971925907 0.45201590229 
0.88863081845 0.073260545785 0.45273409518 0.88639510478 0.084824461106 0.45509178088 0.88352979445 0.093068966121 0.459035151 
0.88026337792 0.096609350908 0.4645460352 0.87677226217 0.094124574015 0.47160467009 0.87311313232 0.084431813163 0.48015073372 
0.86916078837 0.066590332243 0.49002576628 0.86456670499 0.040008581068 0.50092287437 0.85875568721 0.0045445872365 0.51236512021 
0.85098939155 -0.039359892046 0.52370588537 0.8405126278 -0.090543824292 0.5341725736 0.82676669489 -0.14707639486 0.5429782374 
0.80962860377 -0.20632361256 0.54948347642 0.78961179435 -0.26516002564 0.5533564629 0.76792626629 -0.32033455578 0.55468461482 
0.74634814289 -0.36887110435 0.55398425788 0.72693250807 -0.40837601669 0.55208528119 0.71167370278 -0.43715948789 0.54992010594 
0.70217926544 -0.45419899938 0.54831336673 0.70217926544 -0.45419899938 0.54831336673 
FrenetNormal 3 128 double
-0.49988741873 -0.81922800096 -0.28103033827 -0.49988741873 -0.81922800096 -0.28103033827 -0.48459258722 -0.82451882186 -0.29212794596 
-0.45959369273 -0.83262536774 -0.30904471295 -0.42470476993 -0.84288484372 -0.33041034884 -0.37988030703 -0.8543982488 -0.35453432102 
-0.32538820972 -0.86606565908 -0.37954286602 -0.26194664217 -0.87669817241 -0.40346532832 -0.19089357386 -0.88507341025 -0.42450524369 
-0.11419875998 -0.89011830868 -0.44118934686 -0.034473389171 -0.89095021821 -0.45279056319 0.045244335241 -0.88700597176 -0.45953602274 
0.12159047891 -0.87787440418 -0.46319789068 0.19100533887 -0.86306000502 -0.46759425602 0.24973545378 -0.8415150225 -0.47904558241 
0.29357904037 -0.81068882687 -0.50655204377 0.31785497134 -0.7653583867 -0.55963805903 0.31846209247 -0.69753812589 -0.64188975579 
0.29666274621 -0.60249262156 -0.74094119603 0.26569489255 -0.490662944 -0.82985305895 0.246395263 -0.38545070991 -0.88922276433 
0.25280196504 -0.30327023958 -0.91875912418 0.28755166507 -0.24611708556 -0.92560273342 0.34684977692 -0.2090592429 -0.9143245951 
0.42495169771 -0.18719029335 -0.88564995833 0.51569764894 -0.17776508448 -0.83812618956 0.61267584973 -0.17979383619 -0.76961190195 
0.70899362082 -0.19271223184 -0.67837308417 0.79702930325 -0.21462092631 -0.56451939537 0.86915255673 -0.24117241179 -0.43175189743 
0.91982057316 -0.26569337946 -0.28868173011 0.94824340614 -0.28129343609 -0.14733786183 0.95886538476 -0.28320186922 -0.019335852276 
0.95882921243 -0.26998124212 0.088071960936 0.95449272128 -0.24291271073 0.1730232932 0.94948339959 -0.20477266402 0.23780124046 
0.94437815836 -0.15927427501 0.28771791625 0.93741702798 -0.110752987 0.33012587224 0.92557440544 -0.063615682753 0.37318234807 
0.90518439828 -0.021670296292 0.42446625704 0.87246095312 0.013088077691 0.48850853371 0.82393010308 0.041159141871 0.56519475429 
0.75752825921 0.065720864227 0.64948572309 0.67341032861 0.091792297675 0.73354802393 0.57356892354 0.12490006099 0.80957931342 
0.45996743241 0.16945859487 0.87161559517 0.33374832915 0.22807842594 0.91465418843 0.19472538075 0.30017772748 0.93379620797 
0.043831571879 0.38167364049 0.92325729104 -0.11527320556 0.4642011545 0.87819666148 -0.27498271646 0.53652945488 0.79782244246 
-0.42601491308 0.58744585223 0.68805425988 -0.56102102729 0.60930709657 0.56035726908 -0.67730037167 0.59884812924 0.42737000906 
-0.77631907745 0.55504748358 0.29874902671 -0.86086919716 0.47604428575 0.17968323068 -0.93143507479 0.3567775845 0.071683029024 
-0.98159863688 0.18923598669 -0.025570635692 -0.99320487217 -0.03224310327 -0.11182336159 -0.93755781427 -0.29529327788 -0.18381301626 
-0.79736435114 -0.55520932535 -0.23654322347 -0.59535425523 -0.75645990965 -0.27077982913 -0.37924182392 -0.87663872911 -0.2961083883 
-0.18191813832 -0.92864964284 -0.32328877464 -0.012875862642 -0.93360076686 -0.35808353814 0.12975853039 -0.9067298525 -0.40125266152 
0.25007959196 -0.85707466979 -0.45042558552 0.35103043139 -0.79055800609 -0.50179246233 0.43435736256 -0.71230497973 -0.55132141029 
0.50171961884 -0.62743055133 -0.59548998928 0.55462179107 -0.54102229909 -0.63221004481 0.59574336278 -0.45733369234 -0.66025429915 
0.62854843006 -0.37931280439 -0.67900564614 0.6581696013 -0.30799548013 -0.68698730712 0.69194558828 -0.24206307803 -0.68015937038 
0.74059920236 -0.1767365772 -0.64828774765 0.81822313914 -0.10093023588 -0.56597171489 0.92516754284 0.0047716074409 -0.37952898366 
0.98815643156 0.14775093104 -0.04143101669 0.90615914636 0.27465465718 0.32162154896 0.7680979598 0.34873085574 0.53704032847 
0.66841265018 0.39819144527 0.62822615513 0.61022860835 0.44580074312 0.65489139786 0.5768601401 0.4992546113 0.64651157133 
0.55566008389 0.55972331206 0.61477775261 0.53896698102 0.62542799379 0.56422904742 0.52267308562 0.69275980257 0.49688701081 
0.50535740108 0.75693184212 0.41432847302 0.48768540779 0.81280624677 0.31860468962 0.47172486759 0.85578789958 0.21237401025 
0.46033915461 0.882296668 0.098185805386 0.4559531884 0.88973784388 -0.021754520251 0.45967649728 0.8760834939 -0.14551711092 
0.47062429182 0.83980520601 -0.27062888225 0.48559433288 0.78096332671 -0.39280329201 0.50005557881 0.70274502563 -0.50605715789 
0.50930055532 0.61361696419 -0.60339635863 0.51051121836 0.52664005476 -0.67972681914 0.50343090702 0.45661767366 -0.73352411137 
0.48891064469 0.41878303939 -0.76523666105 0.46690070362 0.42688432445 -0.77445045451 0.43427982178 0.4893375426 -0.75627363156 
0.38252398364 0.60682938988 -0.69673057455 0.30479041896 0.75159570065 -0.58498436156 0.20659294414 0.8778046732 -0.43217856395 
0.10655616708 0.95594129092 -0.27353616135 0.016819843264 0.9910546048 -0.13239283655 -0.06266409912 0.99799874013 -0.0084690843116 
-0.14170912542 0.98271422577 0.11912713477 -0.23583608131 0.92867817965 0.28624846095 -0.36980935618 0.74005532401 0.56174652423 
-0.47353636206 0.11697918977 0.87297146744 -0.34482972758 -0.56050068412 0.75294849895 -0.22391224903 -0.80541289201 0.54879265494 
-0.16919202192 -0.89105478276 0.42118337318 -0.15237739035 -0.92902095565 0.33719607778 -0.15853457525 -0.94853629941 0.2741271186 
-0.18039780992 -0.95842046864 0.22110367585 -0.213389981 -0.96156782815 0.17277739398 -0.25391016371 -0.95886861187 0.12688819464 
-0.29857324721 -0.950777339 0.082924469785 -0.34397759047 -0.9380677905 0.041330832077 -0.38698398028 -0.92208072235 0.0032466097886 
-0.42497315241 -0.90471316682 -0.029864787036 -0.4559879108 -0.88818516568 -0.056587424922 -0.47837591774 -0.87482887105 -0.076360511468 
-0.49153806603 -0.86637831434 -0.088198333746 -0.49153806603 -0.86637831434 -0.088198333746 
FrenetBinormal 3 128 double
0.37001291298 -0.49538639032 0.78592796649 0.37001291298 -0.49538639032 0.78592796649 0.3697944625 -0.4957490352 0.78580210588 
0.36978024467 -0.49577384966 0.78579314113 0.37031298511 -0.49476987913 0.78617495493 0.37165982456 -0.49194330926 0.78731236195 
0.37389473964 -0.48651783467 0.78962213762 0.37684895156 -0.47779135743 0.79353656909 0.38005452737 -0.46536937603 0.79936843826 
0.38283722748 -0.44922568041 0.80723722988 0.38444019935 -0.43002077846 0.816876896 0.38430329417 -0.40915174574 0.82759037395 
0.38239896013 -0.389208206 0.83802625715 0.37970514372 -0.37431658736 0.8459971018 0.37869631943 -0.3704392074 0.84815322393 
0.38365269105 -0.38543152765 0.83919792072 0.39984567591 -0.42699135428 0.81104982512 0.43036447772 -0.49694573044 0.75354585615 
0.47096025406 -0.58265648045 0.66235025846 0.51009774929 -0.65887435362 0.55288775743 0.53877506822 -0.70819429895 0.45626994291 
0.55574776457 -0.73180164911 0.3944753079 0.56253166779 -0.73876396629 0.37119526512 0.55931585935 -0.73643614416 0.38056218289 