# vtk DataFile Version 4.2
vtk output
ASCII
DATASET POLYDATA
POINTS 128 float
0 0 0 -0.325894 -0.043303 0.0685407 -0.96982 -0.110563 0.19366 
-1.5167 -0.128436 0.277664 -1.97552 -0.12582 0.337156 -2.45865 -0.156672 0.416096 
-2.95395 -0.245494 0.522596 -3.41878 -0.407534 0.653312 -3.8311 -0.65337 0.798353 
-4.17777 -0.987619 0.943021 -4.45947 -1.39255 1.05861 -4.6828 -1.84327 1.11366 
-4.86325 -2.31288 1.08433 -5.01784 -2.77471 0.95404 -5.15699 -3.2067 0.731657 
-5.28828 -3.59171 0.434966 -5.41554 -3.93118 0.0850968 -5.54087 -4.23294 -0.297376 
-5.66332 -4.50566 -0.701421 -5.78067 -4.758 -1.11987 -5.8893 -4.99665 -1.5486 
-5.98484 -5.22739 -1.98472 -6.06118 -5.45481 -2.42632 -6.11144 -5.68275 -2.87171 
-6.12773 -5.9134 -3.3181 -6.10257 -6.14796 -3.76219 -6.03434 -6.38573 -4.20015 
-5.92476 -6.62546 -4.6282 -5.78141 -6.86792 -5.04471 -5.61446 -7.11518 -5.44911 
-5.43338 -7.37196 -5.84131 -5.24716 -7.64433 -6.22104 -5.06395 -7.9392 -6.58446 
-4.89159 -8.2645 -6.92531 -4.7397 -8.63417 -7.23158 -4.61932 -9.06297 -7.48433 
-4.54622 -9.54267 -7.62769 -4.53688 -10.0478 -7.59177 -4.5886 -10.5104 -7.37274 
-4.68778 -10.8455 -7.00669 -4.82103 -11.0336 -6.55067 -4.97554 -11.0909 -6.06942 
-5.14225 -11.0357 -5.59654 -5.31416 -10.8876 -5.14755 -5.48485 -10.6694 -4.72648 
-5.64849 -10.4053 -4.33047 -5.80202 -10.1144 -3.95067 -5.944 -9.81252 -3.57487 
-6.07344 -9.5148 -3.19132 -6.1896 -9.23626 -2.78877 -6.29211 -8.99725 -2.3581 
-6.38088 -8.82175 -1.8927 -6.45688 -8.73705 -1.40063 -6.52179 -8.77095 -0.900585 
-6.57679 -8.93017 -0.422224 -6.62253 -9.20576 -0.00135565 -6.65679 -9.57519 0.343003 
-6.67538 -10.007 0.604442 -6.67411 -10.4772 0.786523 -6.649 -10.9671 0.900012 
-6.59817 -11.4643 0.958824 -6.52141 -11.9608 0.97933 -6.42097 -12.4532 0.981284 
-6.30105 -12.9416 0.986802 -6.16827 -13.4256 1.01423 -6.03107 -13.9047 1.07811 
-5.89696 -14.3783 1.18154 -5.77235 -14.8459 1.31762 -5.65942 -15.3095 1.47526 
-5.55653 -15.773 1.64005 -5.46022 -16.2391 1.8012 -5.36543 -16.709 1.95167 
-5.26626 -17.1821 2.08908 -5.15598 -17.6557 2.21568 -5.02659 -18.1256 2.33752 
-4.86879 -18.5866 2.46459 -4.6727 -19.0267 2.61073 -4.42825 -19.4269 2.79355 
-4.13625 -19.7701 3.02145 -3.81008 -20.0417 3.29188 -3.46284 -20.2424 3.59641 
-3.10632 -20.3904 3.9204 -2.7466 -20.5032 4.25266 -2.38273 -20.5951 4.58667 
-2.01303 -20.6757 4.9173 -1.63545 -20.7485 5.24086 -1.24846 -20.8136 5.55478 
-0.851291 -20.8676 5.85789 -0.444578 -20.9069 6.15052 -0.030866 -20.9281 6.43499 
0.386553 -20.9304 6.71479 0.803494 -20.9166 6.995 1.21624 -20.8916 7.28049 
1.62194 -20.8625 7.5756 2.01834 -20.8367 7.88346 2.40407 -20.8218 8.20521 
2.77868 -20.8239 8.54032 3.14321 -20.8471 8.88558 3.49941 -20.8941 9.23704 
3.85018 -20.9653 9.58994 4.19837 -21.061 9.93955 4.54659 -21.1813 10.2815 
4.89638 -21.3271 10.6117 5.24708 -21.5014 10.927 5.59629 -21.708 11.2243 
5.93828 -21.9524 11.5004 6.26622 -22.2386 11.753 6.57186 -22.5664 11.9813 
6.84859 -22.9326 12.1869 7.0943 -23.3284 12.3768 7.30878 -23.7448 12.5594 
7.49492 -24.1739 12.7435 7.65583 -24.6089 12.9374 7.79394 -25.0447 13.1463 
7.91101 -25.4775 13.3736 8.00728 -25.9062 13.6176 8.08218 -26.3316 13.874 
8.13338 -26.7594 14.1336 8.15761 -27.1963 14.3827 8.14978 -27.65 14.5984 
8.10607 -28.1258 14.7559 8.02812 -28.6205 14.8309 7.92214 -29.1221 14.812 
7.80638 -29.5939 14.7306 7.69185 -30.026 14.6092 7.55479 -30.5236 14.4059 
7.39532 -31.0996 14.1269 7.31506 -31.3894 13.979 
LINES 1 129
128 0 1 2 3 4 5 6 7 8 9 10 11 12 13 14 15 16 17 18 19 20 21 22 23 24 25 26 27 28 29 30 31 32 33 34 35 36 37 38 39 40 41 42 43 44 45 46 47 48 49 50 51 52 53 54 55 56 57 58 59 60 61 62 63 64 65 66 67 68 69 70 71 72 73 74 75 76 77 78 79 80 81 82 83 84 85 86 87 88 89 90 91 92 93 94 95 96 97 98 99 100 101 102 103 104 105 106 107 108 109 110 111 112 113 114 115 116 117 118 119 120 121 122 123 124 125 126 127 

CELL_DATA 1
FIELD FieldData 2
Length 1 1 double
56.873391392 
Tortuosity 1 1 double
0.61887517108 
POINT_DATA 128
SCALARS MaximumInscribedSphereRadius float
LOOKUP_TABLE default
0.93 0.931219 0.932438 1.00857 1.09046 1.06949 1.04442 0.88317 0.71421 
0.85366 1.01461 0.985347 0.940288 0.824012 0.700797 0.822205 0.970825 1.10544 
1.23822 1.24078 1.2231 1.14146 1.04821 1.04096 1.05164 1.09847 1.15382 
1.10351 1.02534 1.04737 1.09884 1.15949 1.22315 1.2626 1.29333 1.46221 
1.68499 1.78889 1.84502 1.86 1.86 1.86 1.86 1.86 1.86 
1.86 1.86 1.86 1.86 1.86153 1.86381 1.91056 1.98108 2.05866 
2.14022 2.15156 2.12252 2.06178 1.9821 2.03483 2.17157 2.2154 2.19598 
2.03505 1.77002 1.69435 1.76904 1.86399 1.97625 2.02731 2.02196 1.91525 
1.70761 1.58812 1.56331 1.55 1.55 1.55599 1.56939 1.59763 1.64517 
1.70265 1.77394 1.82796 1.85602 1.90641 1.9932 2.12179 2.3243 2.42125 
2.31535 2.23189 2.1954 2.1827 2.22445 2.27748 2.35878 2.36716 2.17458 
2.04387 2.10136 2.16343 2.24094 2.26602 2.09391 1.96085 1.99198 2.03939 
2.16342 2.28369 2.38389 2.47041 2.47227 2.46371 2.37907 2.29101 2.17274 
2.0563 1.96004 1.87112 1.88756 1.9084 2.01006 2.10629 2.06747 2.02542 
1.94271 1.86 
TEXTURE_COORDINATES TCoords 2 float
0 0 0.00787402 0 0.015748 0 0.023622 0 0.0314961 
0 0.0393701 0 0.0472441 0 0.0551181 0 0.0629921 0 
0.0708661 0 0.0787402 0 0.0866142 0 0.0944882 0 0.102362 
0 0.110236 0 0.11811 0 0.125984 0 0.133858 0 
0.141732 0 0.149606 0 0.15748 0 0.165354 0 0.173228 
0 0.181102 0 0.188976 0 0.19685 0 0.204724 0 
0.212598 0 0.220472 0 0.228346 0 0.23622 0 0.244094 
0 0.251969 0 0.259843 0 0.267717 0 0.275591 0 
0.283465 0 0.291339 0 0.299213 0 0.307087 0 0.314961 
0 0.322835 0 0.330709 0 0.338583 0 0.346457 0 
0.354331 0 0.362205 0 0.370079 0 0.377953 0 0.385827 
0 0.393701 0 0.401575 0 0.409449 0 0.417323 0 
0.425197 0 0.433071 0 0.440945 0 0.448819 0 0.456693 
0 0.464567 0 0.472441 0 0.480315 0 0.488189 0 
0.496063 0 0.503937 0 0.511811 0 0.519685 0 0.527559 
0 0.535433 0 0.543307 0 0.551181 0 0.559055 0 
0.566929 0 0.574803 0 0.582677 0 0.590551 0 0.598425 
0 0.606299 0 0.614173 0 0.622047 0 0.629921 0 
0.637795 0 0.645669 0 0.653543 0 0.661417 0 0.669291 
0 0.677165 0 0.685039 0 0.692913 0 0.700787 0 
0.708661 0 0.716535 0 0.724409 0 0.732283 0 0.740157 
0 0.748031 0 0.755906 0 0.76378 0 0.771654 0 
0.779528 0 0.787402 0 0.795276 0 0.80315 0 0.811024 
0 0.818898 0 0.826772 0 0.834646 0 0.84252 0 
0.850394 0 0.858268 0 0.866142 0 0.874016 0 0.88189 
0 0.889764 0 0.897638 0 0.905512 0 0.913386 0 
0.92126 0 0.929134 0 0.937008 0 0.944882 0 0.952756 
0 0.96063 0 0.968504 0 0.976378 0 0.984252 0 
0.992126 0 1 0 
FIELD FieldData 7
Curvature 1 128 double
0 0.033347056172 0.064161451916 0.096271227308 0.12975300293 0.16405098038 0.19786072608 0.22920945752 0.25580224119 
0.27558276467 0.28719930972 0.29018258595 0.28481085579 0.27196958246 0.25307244193 0.22995356049 0.20471119508 0.17938327847 
0.15576068991 0.13528817004 0.11899082717 0.10732054461 0.099970636326 0.095910371071 0.093888898776 0.093191658617 0.094249277202 
0.098811669309 0.10949146408 0.12900428381 0.15999353484 0.20587558189 0.27252757175 0.36987838692 0.51287503144 0.71663354764 
0.97362564384 1.2055343722 1.2669256075 1.1049474653 0.83772051149 0.59074408021 0.40451895017 0.27109091244 0.17343858882 
0.09821525214 0.040971564338 0.045538595581 0.10031306053 0.1641045638 0.23463328614 0.30970968178 0.38221096029 0.43903832736 
0.46532898374 0.45338659572 0.40847007523 0.34482984518 0.27679891784 0.21347242901 0.15872376692 0.11333794081 0.076967586674 
0.049413625776 0.031608361365 0.025579717804 0.028569737547 0.034364855271 0.040993070814 0.049214090669 0.060230133416 0.074726545128 
0.092683836699 0.11333459615 0.13533581547 0.1565891129 0.17455599852 0.18654041606 0.19070329884 0.18659704844 0.1754465199 
0.15946645864 0.14120743047 0.12271874399 0.10529070207 0.089410529428 0.074935086083 0.061504276646 0.048689238785 0.036213563747 
0.024425387306 0.015281004205 0.015306142458 0.024426081796 0.036137364764 0.048391270046 0.060756063287 0.073118845971 0.085496628452 
0.097652559556 0.10945679476 0.12041959594 0.12990888902 0.13732054769 0.14213182665 0.14395177063 0.14293500098 0.13955623457 
0.13477956126 0.12957893061 0.12485129247 0.12124708567 0.11921243196 0.11917653762 0.12180945986 0.12779912472 0.13735692683 
0.14958865326 0.16233639985 0.17243279727 0.17645883879 0.17184671542 0.15758246172 0.13446421852 0.1045301508 0.070165450029 
0.033422728567 0 
Torsion 1 128 double
0 0 -0.071938223559 -0.10030226865 -0.13110556554 -0.16393612269 -0.19806968185 -0.23187343408 -0.26242589998 
-0.28558144104 -0.29674973466 -0.29237842395 -0.27128858844 -0.2347410055 -0.18550308155 -0.12584916587 -0.056779858713 0.021653835173 
0.10931116391 0.20257982918 0.29134186574 0.35971081933 0.39780705584 0.41320552554 0.42625082897 0.45353381378 0.49390195162 
0.52312104949 0.5079213832 0.44111377059 0.34881814911 0.25923336548 0.18473740577 0.12649783683 0.081514437881 0.046832237845 
0.020803068411 0.0021168750051 -0.01194930872 -0.024925737396 -0.03914712372 -0.056289016634 -0.080238750618 -0.12191948305 -0.21651615463 
-0.53387953846 -2.6654700126 -2.0668535584 -0.44529303452 -0.18435880705 -0.10066376106 -0.060227746351 -0.033978642753 -0.013174667261 
0.0055973491987 0.024017025896 0.043008442623 0.063343539435 0.086091951209 0.11386369239 0.15291940222 0.21728910328 0.34056394389 
0.60356818482 1.0820971605 1.1767843213 0.60002912796 0.18278049847 -0.028183965302 -0.11135911297 -0.11277694822 -0.076254815158 
-0.035109833161 -0.0041276709083 0.014125185498 0.021704760762 0.021510481962 0.015697799375 0.0059050502819 -0.0067810470973 -0.021459368093 
-0.03666405633 -0.050056797636 -0.058092082561 -0.056535460568 -0.041366504946 -0.0090512634349 0.044550651718 0.13010665827 0.28605267216 
0.65566275894 1.6559914243 1.6805027672 0.7314797337 0.40283112135 0.28263526345 0.22264798745 0.18141070774 0.14456672892 
0.10822866206 0.071165256032 0.034027915776 -0.0019144256103 -0.036358700129 -0.068863394292 -0.098699894076 -0.12482147266 -0.14491451495 
-0.15403652924 -0.14620532819 -0.11572388073 -0.060333582793 0.015304260561 0.0993079374 0.17452052669 0.22322607886 0.23683134396 
0.22142887548 0.19087841454 0.1567766169 0.1254263617 0.098743015674 0.076440023755 0.057713072722 0.041631491346 0.027995184855 
0 0 
Abscissas 1 128 double
0 0.50245483148 1.004909663 1.5073668406 2.0098241982 2.5122788813 3.0147334577 3.5171901448 4.0196469513 
4.5221035913 5.0245602198 5.5270153522 6.0294703603 6.5319259573 7.0343816116 7.5368380616 8.0392946001 8.5417494909 
9.0442041651 9.5466604434 10.049116971 10.55157345 11.054029919 11.55648788 12.058946152 12.561399376 13.063851408 
13.566309501 14.068769191 14.571223217 15.07367558 15.576132411 16.078590699 16.581047079 17.083502772 17.58595733 
18.088411444 18.590861504 19.093309935 19.595762242 20.098215961 20.60067019 21.103124607 21.605585217 22.108048211 
22.610502877 23.112954082 23.615405829 24.117857822 24.620312871 25.122769435 25.625226019 26.127682615 26.630138535 
27.132594075 27.635050281 28.137506871 28.63997029 29.142437791 29.644879103 30.147303802 30.649766388 31.152254772 
31.65470628 32.157130654 32.659572641 33.162028613 33.664489098 34.166953434 34.669408018 35.17185361 35.674322666 
36.176815084 36.67929076 37.181748453 37.684196799 38.186634316 38.68907758 39.191527967 39.693986425 40.196455395 
40.698916927 41.201368112 41.703821115 42.206276853 42.708733401 43.211191268 43.713647198 44.216099701 44.718553748 
45.221010765 45.723466686 46.225920313 46.72837529 47.230833359 47.733289933 48.235742758 48.738195741 49.240649159 
49.743104239 50.245564371 50.748020978 51.250465696 51.752915388 52.255383783 52.757853577 53.260329255 53.762795549 
54.265217663 54.76764593 55.270107113 55.772572797 56.275066353 56.777554501 57.280003158 57.782452796 58.284911106 
58.787367943 59.289808475 59.792249569 60.294698743 60.797147203 61.299582595 61.802019344 62.304489798 62.806958726 
63.30940848 63.811858235 
ParallelTransportNormals 3 128 double
0.19483660998 0 0.98083571275 0.16825275148 -0.0016480725204 0.98534589684 0.14166889298 -0.0032961450407 0.98985608093 
0.16278393971 -0.0018091180206 0.98635031698 0.1875585796 -8.1557412479e-05 0.98222954712 0.23709420708 0.014245356868 0.96985092222 
0.28761756486 0.029074866751 0.95714288664 0.30575663137 0.041955434067 0.95093945458 0.32206291729 0.054725701482 0.94510414887 
0.28228876074 -0.011646174418 0.95546955588 0.23860589483 -0.083534120149 0.96696412441 0.17876763923 -0.23778413656 0.93841876408 
0.11758740308 -0.3988757271 0.90654740504 0.070623681053 -0.53449582995 0.82593627429 0.025044931502 -0.66763450106 0.74057691612 
-0.0018547010664 -0.73770477365 0.66788622522 -0.02667650415 -0.80075943742 0.59660477279 -0.039764203006 -0.83096342583 0.55270668118 
-0.051309185568 -0.85684844186 0.51240875846 -0.056479477706 -0.86911777639 0.49089607501 -0.060658416998 -0.87926968344 0.47230475703 
-0.061784255893 -0.88285235916 0.46553974678 -0.062355896058 -0.88524258813 0.46092144771 -0.062545389014 -0.88415945574 0.46296360208 
-0.06265516953 -0.88235181169 0.4663950666 -0.064005189128 -0.87863851451 0.47309981977 -0.065647843981 -0.87447557718 0.48057690763 
-0.070817289297 -0.86589665468 0.49480380888 -0.076916549672 -0.8561534868 0.51081025394 -0.090372398417 -0.83573588766 0.53996245106 
-0.10598899743 -0.81218303355 0.57297577045 -0.13294963395 -0.76217168687 0.62741126212 -0.1636122835 -0.70352587613 0.68883766517 
-0.20620346122 -0.56839982004 0.77404089828 -0.25308870228 -0.4057422016 0.867803378 -0.27860732077 -0.10271591018 0.89053129255 
-0.29579024074 0.25507200469 0.88554669812 -0.25527532443 0.55116387516 0.71361262869 -0.19157308308 0.8224616402 0.4745857185 
-0.11871604351 0.93242861461 0.23524710709 -0.042527104829 0.98367906661 -0.0042049483219 0.02178360351 0.96708744936 -0.18669800074 
0.081745352313 0.92565691205 -0.34833673461 0.12041377932 0.88128984336 -0.44796189095 0.15088279748 0.83579200601 -0.52370750982 
0.16276996844 0.8164652954 -0.55379916191 0.16693414124 0.80801584372 -0.56491608577 0.15802912839 0.82876389194 -0.53343172637 
0.14318471044 0.86278099797 -0.48258684322 0.11935149924 0.90925382871 -0.37114304173 0.091060262574 0.9619041225 -0.22964498108 
0.060227419549 0.97317166741 -0.029601170809 0.028036150971 0.96232115955 0.2017338904 0.0016151402309 0.8782040539 0.41948113053 
-0.021568169956 0.75297694749 0.62960422334 -0.034573245956 0.60461571428 0.77476364046 -0.041725716701 0.44295208405 0.88256817433 
-0.040502261709 0.30352794154 0.94412704215 -0.034271980664 0.17739776199 0.97804192019 -0.026468405637 0.092038841056 0.99383219309 
-0.017666858983 0.032541939433 0.99812566888 -0.016978491246 0.020707835979 0.99945107836 -0.021814807988 0.041329804796 0.99875537749 
-0.034950059369 0.090198654078 0.99309153728 -0.054191876941 0.15985227307 0.98377201439 -0.070373716301 0.21978483463 0.97170111476 
-0.084125969715 0.27199899336 0.95744565506 -0.091090325368 0.29883389365 0.94993475892 -0.092258289755 0.30399667731 0.94818324968 
-0.090419420459 0.2950435586 0.95096943565 -0.085808901514 0.27307863411 0.95793839417 -0.081738842796 0.25491403557 0.96340996787 
-0.07820691832 0.24053340746 0.96739060104 -0.080826162862 0.24526577927 0.96578098456 -0.090053106372 0.27052968735 0.95816621902 
-0.11702099816 0.3187049665 0.93708114193 -0.16454557394 0.39342797055 0.90038782715 -0.22421324036 0.46275421848 0.85218018168 
-0.29893012168 0.52539214092 0.78970255817 -0.36084525863 0.56946145077 0.73667362168 -0.40608396076 0.58934200565 0.69595319632 
-0.43635182044 0.60194575108 0.66868951934 -0.44579624452 0.60442794367 0.66014327485 -0.44875736559 0.60540636749 0.65730342308 
-0.44197160273 0.60412405175 0.6630424619 -0.43598003944 0.60310543072 0.66795460885 -0.43128274401 0.60251653993 0.67151921092 
-0.4312970745 0.60227245175 0.67170594907 -0.43964346617 0.60263811411 0.66591925695 -0.45142051821 0.60268408533 0.65780438503 
-0.46979009019 0.60211572286 0.6452155722 -0.48777921042 0.60139600372 0.63256799047 -0.50497174407 0.60035937531 0.61979735889 
-0.51906913491 0.59959297014 0.60910715986 -0.52608134829 0.5994451405 0.6031793368 -0.52913895588 0.59917849565 0.60079347393 
-0.52227695375 0.59861381848 0.60729215344 -0.51198004724 0.59703994478 0.61729128746 -0.49221677698 0.59268479382 0.6369374369 
-0.46962671941 0.58657747421 0.65916425 -0.43843910948 0.57514100882 0.68924004088 -0.40495230261 0.56128670331 0.72078507399 
-0.36370908548 0.53927574117 0.75728664011 -0.32141994131 0.51436393766 0.793912987 -0.27519731021 0.47854274815 0.8310086052 
-0.23116664872 0.44190963341 0.86605182076 -0.19635079662 0.4018632705 0.89246695174 -0.16584440552 0.36580478961 0.91571286495 
-0.15562900704 0.34852315461 0.92403659307 -0.14801907314 0.33635228663 0.929981128 -0.15434354348 0.35151454552 0.92320139103 
-0.16121284274 0.36928783904 0.91500445151 -0.17145640611 0.40323193457 0.89803041586 -0.18110735071 0.43624432422 0.88129219698 
-0.18643062192 0.46245281421 0.86627605979 -0.19107831179 0.48445399795 0.8536591438 -0.18975932188 0.46929659381 0.86223195493 
-0.18896637671 0.44738143151 0.87316522435 -0.19399701184 0.35065448026 0.91022995673 -0.20037239777 0.25061690449 0.94561093299 
-0.22605847445 0.10303858985 0.95681308449 -0.25167759653 -0.042001674699 0.96633406612 -0.27607047673 -0.14055875292 0.94506521715 
-0.3000917926 -0.23739568514 0.92375115788 -0.31488225142 -0.2914986404 0.90131392885 -0.32858166765 -0.34161060197 0.88053181902 
-0.32858166765 -0.34161060197 0.88053181902 -0.32858166765 -0.34161060197 0.88053181902 
FrenetTangent 3 128 double
-0.96414350063 -0.18805655216 0.18724861385 -0.96414350063 -0.18805655216 0.18724861385 -0.95962896296 -0.21091373386 0.18608506207 
-0.95139820175 -0.24781302174 0.18283918609 -0.93820143444 -0.2982223281 0.17561751458 -0.91847519569 -0.3608185821 0.16190511329 
-0.89061286961 -0.43306365628 0.13879692397 -0.85337873816 -0.51092416233 0.10344674772 -0.80638481815 -0.58894640605 0.053718301014 
-0.75044900311 -0.66083498231 -0.011109450849 -0.68763531561 -0.72047659158 -0.089839599878 -0.62090147089 -0.76310804633 -0.17929716415 
-0.55347571709 -0.78622710459 -0.27479368733 -0.48820330657 -0.78995348152 -0.37098656106 -0.42706755618 -0.77677176542 -0.46285951099 
-0.37099520903 -0.75078807662 -0.54651607377 -0.31990831489 -0.71678788232 -0.61957550132 -0.2729586552 -0.67937586398 -0.68113288571 
-0.22884921329 -0.6423973393 -0.73140528849 -0.18615236162 -0.6086914626 -0.77126000909 -0.14359229794 -0.58010608112 -0.80178437664 
-0.10026824167 -0.55767372144 -0.82398197804 -0.055813195233 -0.54184630356 -0.83862236469 -0.010465355711 -0.53274244663 -0.84621271669 
0.034949811822 -0.5303629989 -0.84704993953 0.079134288168 -0.53475576717 -0.84129307255 0.12051953701 -0.54611713254 -0.82899404023 
0.15750086424 -0.56482045379 -0.81004403136 0.1886233682 -0.59137870928 -0.78402324403 0.21266363308 -0.62634429958 -0.74997799805 
0.22859289344 -0.67016395559 -0.70613423773 0.23540643091 -0.72295185501 -0.64955710113 0.23184796948 -0.78408592625 -0.57572196355 
0.21605030516 -0.85137443534 -0.47799982896 0.18515483181 -0.91929721514 -0.34728996312 0.13528780804 -0.97559395847 -0.17295559313 
0.063075739445 -0.99667101224 0.051656020457 -0.02932427978 -0.94865194004 0.31495965342 -0.12775405599 -0.80920786587 0.57346449845 
-0.21054777856 -0.59989400892 0.77187875408 -0.26529117959 -0.37472161049 0.88837171537 -0.29412103304 -0.17538586629 0.93953851216 
-0.30499830129 -0.01664151383 0.95220748591 -0.30495491106 0.10203625658 0.9468849479 -0.29865153515 0.18552406769 0.9361560131 
-0.28889041986 0.23848029302 0.92718362537 -0.27726223298 0.26408864119 0.92378722862 -0.26455732397 0.26394435039 0.92754665771 
-0.25096777836 0.23825576099 0.93821605538 -0.23616128422 0.18620945254 0.95370534633 -0.21931168015 0.10664801597 0.96980853143 
-0.19917964075 -0.00068449490529 0.9799627555 -0.17436886078 -0.13320605875 0.97562884659 -0.14387342653 -0.28340779101 0.94814580162 
-0.1078070959 -0.43835199929 0.89231449321 -0.067775892925 -0.58262401306 0.80991091346 -0.026394132742 -0.7038018952 0.70990579802 
0.013764653077 -0.79638668842 0.60463110806 0.050950366865 -0.86157390229 0.5050687785 0.084338474902 -0.90433503774 0.41840788852 
0.11372812836 -0.93054937924 0.3480571298 0.13922104864 -0.9453895079 0.29471372205 0.16103124284 -0.95278584806 0.25742584673 
0.17944088308 -0.9554559121 0.23431809472 0.19484686643 -0.95513716623 0.22304190709 0.20783913608 -0.95285253038 0.22107679403 
0.21927127162 -0.94913205262 0.22598330942 0.23027179065 -0.94416427647 0.23564532981 0.24219466283 -0.93787064947 0.248476136 
0.25651255346 -0.92991688665 0.26354486114 0.27465624561 -0.9196938538 0.28058360971 0.29784306653 -0.90629521388 0.29986412426 
0.32691081532 -0.88851649901 0.32197476581 0.36214506894 -0.86491940855 0.34751311595 0.40313257358 -0.83398789558 0.3767602927 
0.4486705591 -0.79440935643 0.40940017565 0.49679880567 -0.74547588487 0.44436094761 0.54502534221 -0.68750967802 0.47987271123 
0.5907737601 -0.62211261943 0.51377256946 0.63193132094 -0.55202531147 0.54399527674 0.66725875252 -0.48059024754 0.56903318985 
0.69648710811 -0.41104020006 0.58817655697 0.72010043243 -0.34591968265 0.60149392381 0.73896780188 -0.28682312521 0.60963848519 
0.75399422662 -0.23446265588 0.61361223034 0.76590528408 -0.18891476806 0.61457327165 0.77516872396 -0.14993055489 0.61370536751 
0.78202298631 -0.11717720791 0.61213523901 0.78656124267 -0.090395724352 0.61086006953 0.78882275327 -0.069505423478 0.61067803304 
0.78887128814 -0.05459779038 0.61212839506 0.78684527379 -0.045889675969 0.61544183539 0.78297574947 -0.043650072629 0.62051885298 
0.77757456467 -0.048127794983 0.6269461793 0.77100249807 -0.059491609772 0.6340472351 0.76361967485 -0.077773079864 0.64096516304 
0.75572701684 -0.10287145242 0.64675663143 0.74749592342 -0.13455211961 0.65049640397 0.73890147252 -0.17246393339 0.65136841003 
0.72967823292 -0.21612001635 0.64873863376 0.71930325674 -0.26489914532 0.64220811864 0.70701959424 -0.31802476377 0.63165144106 
0.69192602471 -0.37447408731 0.61725807752 0.67311474498 -0.43297356358 0.59954185286 0.64982143424 -0.49204215194 0.57933291319 
0.62158645097 -0.55006195121 0.55772944498 0.58835924901 -0.60545146024 0.53596821118 0.55050293469 -0.65686385297 0.51524401749 
0.50870083943 -0.70335817339 0.49649847522 0.46381070556 -0.74449838908 0.48021013949 0.41671446199 -0.78035224085 0.46626112573 
0.36818448149 -0.8114396281 0.45387874763 0.31881527635 -0.83862034148 0.44167040021 0.2690187066 -0.86293154603 0.42775937438 
0.21905379656 -0.88539775699 0.40998322665 0.16909372544 -0.90681616797 0.38612400795 0.119330507 -0.92753014196 0.35418648458 
0.070099936097 -0.94724966828 0.31273641442 0.022000634859 -0.96501225129 0.2612801694 -0.024035625256 -0.97937083982 0.2006366039 
-0.066787953993 -0.98883903345 0.13317933445 -0.1049442231 -0.9924979836 0.062725294666 -0.13739182092 -0.99049855097 -0.0060089985733 
-0.16346777919 -0.98418659707 -0.068227760546 -0.18303751434 -0.9757744814 -0.11983918303 -0.1963719045 -0.96773534858 -0.15788087353 
-0.20390017847 -0.96219999619 -0.1805433038 -0.20390017847 -0.96219999619 -0.1805433038 
FrenetNormal 3 128 double
0.18526890569 -0.98215226651 -0.032440067348 0.18526890569 -0.98215226651 -0.032440067348 0.20314016596 -0.97730228361 -0.060119210135 
0.23192796474 -0.9671558143 -0.10401466259 0.27085986488 -0.94857983461 -0.16380241441 0.31833088665 -0.91743341491 -0.23870772046 
0.37157205986 -0.86893524174 -0.3269338618 0.42649422049 -0.79841189691 -0.42501896753 0.47791833103 -0.70246830076 -0.52738255118 
0.52040523046 -0.58044697469 -0.62630639921 0.5495816122 -0.43563956818 -0.71286619934 0.56356133089 -0.27556679835 -0.77875642275 
0.56368935521 -0.11073301836 -0.8185307016 0.55430896477 0.047666025225 -0.83094495703 0.54172512449 0.19005613497 -0.81878724652 
0.53295821136 0.30980101989 -0.78738737164 0.53530450889 0.40281944439 -0.74241873494 0.55548821324 0.46675953947 -0.68816304555 
0.5991795466 0.49919917847 -0.62592655412 0.66860162379 0.49671770375 -0.55339261962 0.75904230996 0.45530047729 -0.46535604334 
0.85582987012 0.37403141546 -0.35728942561 0.93791820958 0.25953488952 -0.23011100205 0.9881476837 0.12410100716 -0.090349849018 
0.99825931775 -0.021762940233 0.054815225626 0.9638475697 -0.17435607584 0.20148901014 0.87791092005 -0.33119129096 0.34581027348 
0.73476530667 -0.48102112025 0.47826627101 0.54549190827 -0.60077127876 0.58439066438 0.34370040475 -0.67053623859 0.65745812377 
0.16393332375 -0.68848355136 0.70648160972 0.020752170936 -0.66444810203 0.74704622823 -0.08813108217 -0.6063459475 0.79030216013 
-0.17113236887 -0.51500310838 0.83993184883 -0.23580527367 -0.38463740327 0.8924404411 -0.2858417478 -0.20556891094 0.9359679044 
-0.31904715618 0.028905732858 0.94729793135 -0.32693096662 0.30686735277 0.893839231 -0.30091090865 0.58257254179 0.75502440928 
-0.24455948785 0.79679402979 0.55254857795 -0.17353635858 0.92489696021 0.33830569794 -0.1014261913 0.98319595475 0.15178419644 
-0.03252851335 0.99944595732 0.0070479937464 0.037068250392 0.99476228189 -0.095257269243 0.12114910887 0.98035742322 -0.1556348809 
0.26524092747 0.95050338398 -0.16183500067 0.69540271252 0.71861276008 0.0032815365415 0.66406579939 -0.64759171472 0.3736864797 
0.3253477532 -0.89208870024 0.31357071036 0.22500574353 -0.9443134483 0.24009274611 0.1890394924 -0.97052611936 0.14947615851 
0.18069421358 -0.98287879283 0.036039974808 0.18759843294 -0.97715385212 -0.099885821063 0.20329549061 -0.94614308483 -0.25196072419 
0.22304433512 -0.88532994044 -0.40797318677 0.24374880397 -0.79684780993 -0.55282916743 0.26433058884 -0.68979032892 -0.67403163274 
0.2859533271 -0.57629865225 -0.76557857738 0.31136532747 -0.4668152651 -0.82772890557 0.3443096963 -0.36759070821 -0.8639027169 
0.38977658553 -0.28045298159 -0.87716608376 0.45560276857 -0.20309169376 -0.86670634081 0.55530720233 -0.12815879158 -0.82171116287 
0.71107543326 -0.038628583939 -0.70205381612 0.91517803498 0.095241264786 -0.39163537349 0.95537891308 0.24624215406 0.16314390581 
0.77472783623 0.31016822902 0.55099224085 0.65376894922 0.32946312807 0.68120496789 0.62907264995 0.3467709373 0.6957136754 
0.65444753105 0.36775740613 0.66064583503 0.689341401 0.39177096392 0.60936355708 0.71212240167 0.42013307614 0.56246767318 
0.71695787517 0.45513590693 0.5280366573 0.70561668606 0.49798483892 0.50409938758 0.68111142186 0.54839559979 0.48512833059 
0.64614322816 0.60482542412 0.46549450593 0.60287026703 0.66475063208 0.44119614491 0.5534957892 0.72495064901 0.40998654592 
0.50072446831 0.78200503747 0.37113761358 0.44763704317 0.83296239337 0.32526101645 0.39754776892 0.875856408 0.27355314656 
0.3532586937 0.90987961415 0.21754857639 0.31646880787 0.93519001154 0.15895639644 0.28725966261 0.95261950218 0.099989851005 
0.26386227476 0.96355858795 0.043949374699 0.24293176152 0.97003261023 -0.0045710322491 0.2198543268 0.97472998263 -0.039566854206 
0.18884222447 0.98054615224 -0.053552381704 0.14197315403 0.98920006967 -0.036425893168 0.06419053046 0.99746801461 0.030612671127 
-0.083973750038 0.97712728439 0.19537317984 -0.39572826598 0.72771769557 0.56020183422 -0.61982356981 -0.13911038345 0.77231278866 
-0.50121898491 -0.6494961773 0.57178164087 -0.39454874043 -0.82614865279 0.40225575809 -0.32228495798 -0.90611829325 0.27401102987 
-0.27043688234 -0.94846839249 0.16514115516 -0.23396670539 -0.96984635888 0.068246764995 -0.21142789452 -0.97721089275 -0.018897526392 
-0.20346651555 -0.97438823477 -0.095754608217 -0.21038207056 -0.96409754983 -0.1620348691 -0.23248872306 -0.94805913419 -0.2171010634 
-0.26908403935 -0.92712587364 -0.26082828489 -0.31875767949 -0.90138550261 -0.29308312379 -0.37970320935 -0.87041796414 -0.31336566582 
-0.44940525966 -0.83356740005 -0.32124803837 -0.52479555354 -0.79018746841 -0.31653339752 -0.60231468161 -0.73986563998 -0.29969294136 
-0.67761305405 -0.68284137363 -0.27307179906 -0.74572127045 -0.62072073415 -0.24208584634 -0.80212464087 -0.55698950398 -0.21531082874 
-0.84351493966 -0.49685206835 -0.20401119761 -0.8680808228 -0.44543225929 -0.21914786668 -0.87419297122 -0.40518324898 -0.26760639716 
-0.8593827147 -0.37405260243 -0.3486344795 -0.8220022155 -0.34590841484 -0.45239333136 -0.76518020063 -0.31323237269 -0.5624808808 
-0.6971544762 -0.27075595883 -0.66382742266 -0.62709918378 -0.21685906217 -0.74814354295 -0.56093131346 -0.15291360325 -0.81361753393 
-0.50127460978 -0.082155746147 -0.86137924224 -0.44850171364 -0.0090601626563 -0.89373604958 -0.40277546052 0.061409166631 -0.9132364659 
-0.36434791509 0.12449550313 -0.92290382298 -0.33389275346 0.17635429666 -0.92596694932 -0.31210007176 0.21433074986 -0.92555706192 
-0.29930618098 0.23685640528 -0.92429154129 -0.29930618098 0.23685640528 -0.92429154129 
FrenetBinormal 3 128 double
0.19000721772 0.0034144656881 0.98177675601 0.19000721772 0.0034144656881 0.98177675601 0.19454132319 -0.019890784883 0.98069262781 
0.20261016975 -0.056553842636 0.9776250723 0.21543677031 -0.10611192389 0.97073542101 0.23466734221 -0.16770772199 0.95749953446 
0.26218871223 -0.23959844589 0.93479926396 0.29974557404 -0.31858271017 0.89925393946 0.34833546177 -0.39960032186 0.84792805641 
0.4074367311 -0.47579242925 0.77949783477 0.47446572506 -0.53956616611 0.69552183872 0.54486694685 -0.5845759568 0.60115801663 
0.61312228911 -0.60793514346 0.50447588637 0.67409131653 -0.61131125221 0.41460758543 0.72398010467 -0.60042009461 0.33962997222 
0.76047228735 -0.58338717168 0.28520397629 0.781733812 -0.56916748589 0.25483449566 0.78544663568 -0.56620134914 0.24997922861 
0.7672104721 -0.58148588863 0.27067000723 0.71994386374 -0.61868103749 0.31450692667 0.63500867999 -0.67540980896 0.37494741805 
0.50744606917 -0.74101317172 0.43977035623 0.34233655864 -0.79940241708 0.49372204344 0.15314905004 -0.83712867923 0.52512945346 
-0.047506264656 -0.84749127655 0.52867919477 -0.25443196895 -0.82682297277 0.50162550262 -0.46340852134 -0.76945981463 0.43952717324 