# vtk DataFile Version 4.2
vtk output
ASCII
DATASET POLYDATA
POINTS 128 float
0 0 0 -0.333633 0.0135172 0.0249563 -0.991541 0.0271536 0.0747093 
-1.54489 0.00722016 0.118196 -2.00339 -0.0457522 0.158205 -2.4863 -0.123453 0.206239 
-2.98553 -0.230726 0.265059 -3.46645 -0.374337 0.335592 -3.92616 -0.553948 0.420904 
-4.36953 -0.766949 0.524261 -4.79394 -1.00978 0.646866 -5.19547 -1.2783 0.788996 
-5.57524 -1.56689 0.949409 -5.93605 -1.86967 1.12633 -6.28115 -2.18193 1.3177 
-6.61395 -2.49955 1.5214 -6.93794 -2.81943 1.7354 -7.2566 -3.13901 1.95766 
-7.57305 -3.45657 2.18587 -7.89026 -3.77078 2.41761 -8.21087 -4.08081 2.65033 
-8.53747 -4.38609 2.88116 -8.87314 -4.68632 3.10536 -9.22111 -4.98129 3.3174 
-9.58423 -5.27059 3.51159 -9.96609 -5.55328 3.679 -10.3765 -5.82527 3.7875 
-10.822 -6.07927 3.79535 -11.2625 -6.29414 3.66667 -11.6406 -6.44657 3.37708 
-11.9343 -6.54601 2.96865 -12.1401 -6.61631 2.50921 -12.2728 -6.67518 2.02794 
-12.354 -6.73666 1.53525 -12.3925 -6.80849 1.03817 -12.3907 -6.89523 0.54206 
-12.3506 -7.00114 0.0514948 -12.2743 -7.13023 -0.42925 -12.1628 -7.28553 -0.895157 
-12.0167 -7.46949 -1.34074 -11.8373 -7.68354 -1.76 -11.6267 -7.92839 -2.14667 
-11.3878 -8.20325 -2.49493 -11.1245 -8.50639 -2.79938 -10.8415 -8.8353 -3.0556 
-10.544 -9.18699 -3.25993 -10.2377 -9.55815 -3.40936 -9.92833 -9.94528 -3.50135 
-9.6225 -10.3446 -3.53333 -9.32718 -10.7522 -3.50271 -9.05043 -11.1627 -3.40732 
-8.80108 -11.5703 -3.24554 -8.58773 -11.9676 -3.01926 -8.41853 -12.3467 -2.73328 
-8.29725 -12.7023 -2.39665 -8.22419 -13.0309 -2.02157 -8.19595 -13.3329 -1.61928 
-8.20636 -13.6117 -1.20005 -8.24928 -13.8719 -0.771352 -8.31872 -14.1189 -0.338393 
-8.40925 -14.3578 0.0950367 -8.51595 -14.5939 0.526296 -8.63431 -14.8323 0.953201 
-8.76014 -15.0778 1.37394 -8.88917 -15.3352 1.78652 -9.01702 -15.6092 2.18877 
-9.13887 -15.9041 2.57792 -9.24957 -16.2239 2.95058 -9.34357 -16.5713 3.30263 
-9.41508 -16.9479 3.62923 -9.45948 -17.3524 3.92616 -9.4735 -17.7811 4.18999 
-9.4563 -18.2289 4.41981 -9.4097 -18.6896 4.61753 -9.33654 -19.1581 4.78658 
-9.24074 -19.6303 4.93199 -9.12597 -20.1035 5.05895 -8.99554 -20.5759 5.17275 
-8.85224 -21.0465 5.27837 -8.69825 -21.5144 5.38038 -8.53515 -21.9791 5.483 
-8.36386 -22.4399 5.59 -8.18476 -22.8958 5.70476 -7.99756 -23.3456 5.83016 
-7.80151 -23.7879 5.96845 -7.59528 -24.2207 6.12109 -7.37726 -24.642 6.28886 
-7.14551 -25.0496 6.47163 -6.89817 -25.4411 6.66873 -6.63359 -25.8141 6.87867 
-6.35052 -26.1668 7.0996 -6.04836 -26.4974 7.32916 -5.72692 -26.8046 7.5649 
-5.38663 -27.0877 7.80435 -5.02842 -27.3463 8.0454 -4.65397 -27.5805 8.28668 
-4.26541 -27.7908 8.52761 -3.86553 -27.978 8.76898 -3.45721 -28.1433 9.01217 
-3.04341 -28.2876 9.2594 -2.62708 -28.412 9.51309 -2.21119 -28.5179 9.77574 
-1.7986 -28.6068 10.0497 -1.39206 -28.6806 10.3368 -0.994133 -28.7416 10.6387 
-0.607066 -28.7924 10.9561 -0.232804 -28.8359 11.2896 0.12727 -28.8755 11.6388 
0.472032 -28.915 12.0032 0.800785 -28.9581 12.3816 1.11302 -29.0089 12.773 
1.40852 -29.0717 13.1754 1.6871 -29.1508 13.5869 1.94851 -29.2505 14.0053 
2.19237 -29.3752 14.4276 2.41808 -29.5287 14.8504 2.62511 -29.7142 15.27 
2.81332 -29.9339 15.6823 2.98281 -30.1882 16.0833 3.13412 -30.4728 16.4687 
3.26901 -30.7847 16.8362 3.39288 -31.1271 17.1889 3.50949 -31.4965 17.527 
3.61428 -31.8626 17.8371 3.70928 -32.2172 18.1188 3.8285 -32.6583 18.4348 
3.97853 -33.1934 18.7908 4.05622 -33.4666 18.9679 
LINES 1 129
128 0 1 2 3 4 5 6 7 8 9 10 11 12 13 14 15 16 17 18 19 20 21 22 23 24 25 26 27 28 29 30 31 32 33 34 35 36 37 38 39 40 41 42 43 44 45 46 47 48 49 50 51 52 53 54 55 56 57 58 59 60 61 62 63 64 65 66 67 68 69 70 71 72 73 74 75 76 77 78 79 80 81 82 83 84 85 86 87 88 89 90 91 92 93 94 95 96 97 98 99 100 101 102 103 104 105 106 107 108 109 110 111 112 113 114 115 116 117 118 119 120 121 122 123 124 125 126 127 

CELL_DATA 1
FIELD FieldData 2
Length 1 1 double
59.813533321 
Tortuosity 1 1 double
0.54631426383 
POINT_DATA 128
SCALARS MaximumInscribedSphereRadius float
LOOKUP_TABLE default
1.24 1.24 1.24 1.25252 1.26617 1.32843 1.39144 1.47869 1.56729 
1.65537 1.74343 1.76967 1.7904 1.72326 1.64653 1.72761 1.82924 1.99242 
2.16496 2.11969 2.03633 1.82341 1.58473 1.50851 1.46857 1.50196 1.55362 
1.60868 1.66467 1.73139 1.80098 1.83322 1.85486 1.84551 1.8265 1.75766 
1.6719 1.66736 1.69277 1.81834 1.98388 2.049 2.0709 2.03529 1.97307 
1.97287 2.00345 2.07749 2.17462 2.31127 2.47032 2.57787 2.65431 2.57187 
2.38751 2.2367 2.10873 2.00445 1.91737 1.87727 1.87366 1.89363 1.9332 
2.02408 2.1606 2.27295 2.36232 2.37128 2.29855 2.24103 2.2 2.1764 
2.17291 2.14089 2.0738 1.99911 1.91442 1.8639 1.86146 1.86802 1.88813 
1.92628 1.99364 2.06103 2.12845 2.17472 2.18138 2.18641 2.18813 2.18726 
2.18075 2.19065 2.23909 2.30094 2.39692 2.50456 2.6444 2.77946 2.90007 
2.97005 2.87259 2.76506 2.6209 2.50361 2.49468 2.48148 2.44909 2.40988 
2.33621 2.26714 2.22446 2.18797 2.19222 2.20312 2.26511 2.3279 2.39803 
2.46308 2.47183 2.48 2.48 2.48 2.48 2.48 2.48 2.48 
2.48 2.48 
TEXTURE_COORDINATES TCoords 2 float
0 0 0.00787402 0 0.015748 0 0.023622 0 0.0314961 
0 0.0393701 0 0.0472441 0 0.0551181 0 0.0629921 0 
0.0708661 0 0.0787402 0 0.0866142 0 0.0944882 0 0.102362 
0 0.110236 0 0.11811 0 0.125984 0 0.133858 0 
0.141732 0 0.149606 0 0.15748 0 0.165354 0 0.173228 
0 0.181102 0 0.188976 0 0.19685 0 0.204724 0 
0.212598 0 0.220472 0 0.228346 0 0.23622 0 0.244094 
0 0.251969 0 0.259843 0 0.267717 0 0.275591 0 
0.283465 0 0.291339 0 0.299213 0 0.307087 0 0.314961 
0 0.322835 0 0.330709 0 0.338583 0 0.346457 0 
0.354331 0 0.362205 0 0.370079 0 0.377953 0 0.385827 
0 0.393701 0 0.401575 0 0.409449 0 0.417323 0 
0.425197 0 0.433071 0 0.440945 0 0.448819 0 0.456693 
0 0.464567 0 0.472441 0 0.480315 0 0.488189 0 
0.496063 0 0.503937 0 0.511811 0 0.519685 0 0.527559 
0 0.535433 0 0.543307 0 0.551181 0 0.559055 0 
0.566929 0 0.574803 0 0.582677 0 0.590551 0 0.598425 
0 0.606299 0 0.614173 0 0.622047 0 0.629921 0 
0.637795 0 0.645669 0 0.653543 0 0.661417 0 0.669291 
0 0.677165 0 0.685039 0 0.692913 0 0.700787 0 
0.708661 0 0.716535 0 0.724409 0 0.732283 0 0.740157 
0 0.748031 0 0.755906 0 0.76378 0 0.771654 0 
0.779528 0 0.787402 0 0.795276 0 0.80315 0 0.811024 
0 0.818898 0 0.826772 0 0.834646 0 0.84252 0 
0.850394 0 0.858268 0 0.866142 0 0.874016 0 0.88189 
0 0.889764 0 0.897638 0 0.905512 0 0.913386 0 
0.92126 0 0.929134 0 0.937008 0 0.944882 0 0.952756 
0 0.96063 0 0.968504 0 0.976378 0 0.984252 0 
0.992126 0 1 0 
FIELD FieldData 7
Curvature 1 128 double
0 0.024192570769 0.045096910298 0.064463866974 0.081626144023 0.095938389 0.10681886176 0.11382302422 0.11670305401 
0.11548372425 0.11044262402 0.10206954518 0.090955586344 0.077683969191 0.062740589799 0.046478161574 0.029230999088 0.013061122908 
0.017663683755 0.040020148876 0.067684299128 0.10079969563 0.14078917698 0.18924775158 0.24699298348 0.31237061267 0.37883698479 
0.43377148969 0.46217544011 0.45571641168 0.41929300131 0.36724003113 0.31428020847 0.26963197061 0.23700685109 0.2165481344 
0.20651008904 0.20441610446 0.20784420858 0.21469165439 0.22344684542 0.2330875722 0.24299320723 0.25284888301 0.26254808236 
0.2719530641 0.28083422962 0.28865700943 0.29453304008 0.29725181866 0.29548709069 0.28813819514 0.27467961632 0.25540583056 
0.23134765942 0.2040111282 0.17500082571 0.14569202219 0.1172191236 0.090504137509 0.066718942282 0.048418414543 0.04102625749 
0.047906077839 0.063234007505 0.081053661643 0.098562598337 0.11415911192 0.12668699471 0.13521056446 0.13913750635 0.13830592437 
0.13304289844 0.12409920448 0.11254536073 0.099569377337 0.086397551307 0.074284807507 0.064460868107 0.058068931644 0.055842300971 
0.057507329868 0.062055165374 0.068230969963 0.075051485985 0.081917425949 0.088381029591 0.094203731268 0.09916097541 0.10308370129 
0.10581248612 0.10724324114 0.10725087324 0.10589755793 0.10317278518 0.099317197002 0.094540277863 0.089207530439 0.083672406433 
0.078315507667 0.073491090628 0.069476777461 0.066427199537 0.064466084372 0.063598209978 0.063870024074 0.065368192487 0.068156415544 
0.072292044231 0.077717676398 0.084245450867 0.091540549641 0.099093961939 0.10630802012 0.11251438226 0.11706424581 0.11940840168 
0.11909807847 0.11593078642 0.10994887851 0.10135506998 0.090499318921 0.077748424382 0.063512368045 0.048140535245 0.031863563335 
0.01511982994 0 
Torsion 1 128 double
0 0 0.025283972782 0.033899110651 0.042138697472 0.049672534172 0.056341891893 0.062066700682 0.066791609658 
0.070382430667 0.072543893948 0.0725219449 0.068639288202 0.056972735227 0.027442065808 -0.053075280213 -0.35111752862 -2.4791799506 
-1.46031288 -0.22607041204 -0.018891693433 0.046577757203 0.075612842294 0.09234147773 0.10495088951 0.11690390584 0.13007467126 
0.14622156908 0.16744888087 0.19580844589 0.23239760687 0.27658602704 0.32425655447 0.36676323607 0.39209786571 0.39012156394 
0.36061478525 0.31397757161 0.26334082345 0.21809581527 0.18187366015 0.15508289417 0.13615603894 0.12349709586 0.11521770942 
0.10962477264 0.10550979765 0.10192870783 0.098523717028 0.095228202033 0.092315999505 0.090246124782 0.08975828049 0.091561452053 
0.096754940421 0.10704570963 0.12537251504 0.15730603545 0.21448988807 0.32369796415 0.54584595104 0.96734357097 1.2776021517 
0.89984100684 0.50006579316 0.29588851167 0.19485599795 0.14111106637 0.11084143625 0.094123266574 0.086154387404 0.085106017301 
0.090879176679 0.10444021126 0.12817467214 0.16551731751 0.22143191434 0.29828054158 0.38623809072 0.45216186288 0.44844470278 
0.37025233065 0.26193050412 0.16293456172 0.087038916279 0.033103920123 -0.0030830596602 -0.025313204752 -0.036666072058 -0.039045360651 
-0.033740169462 -0.021989118041 -0.0043809770652 0.01861835292 0.046749352494 0.079670326629 0.11726791529 0.15908664547 0.20386426987 
0.24981317142 0.29428315622 0.33414175393 0.36682380887 0.39098713799 0.40669096641 0.41282918778 0.40991073041 0.39661644342 
0.3720101241 0.33904796381 0.30181513421 0.26396038762 0.22842205012 0.19729411624 0.17108785188 0.14989886861 0.13294172771 
0.11927747269 0.10820709978 0.098619219407 0.089539603091 0.080078454044 0.06973518384 0.058414886965 0.045296045471 0.031997833209 
0 0 
Abscissas 1 128 double
0 0.5030483099 1.0060966198 1.5091436489 2.0121905636 2.5152404256 3.0182903327 3.5213420486 4.0243938654 
4.5274395752 5.030484854 5.5335343552 6.036584234 6.5396322619 7.0426800876 7.5457310373 8.0487823936 8.5518294342 
9.0548758185 9.5579228247 10.06096994 10.564021679 11.067074337 11.570122013 12.073168577 12.576229051 13.079292989 
13.582330861 14.085361581 14.588405261 15.091452388 15.594500703 16.097549356 16.600599709 17.103650593 17.606700568 
18.109750235 18.612800191 19.115850254 19.618892975 20.121932765 20.624989066 21.128052473 21.63109028 22.13411625 
22.637166506 23.140228811 23.643285797 24.146339957 24.649388885 25.152434843 25.655472644 26.158505517 26.661564537 
27.164640331 27.667685977 28.1707111 28.673753035 29.176807181 29.67986422 30.182923505 30.685970008 31.189005888 
31.692049891 32.195101119 32.698157394 33.201218471 33.704273282 34.207321726 34.710370022 35.213418159 35.716468358 
36.219520937 36.722555876 37.225569119 37.728601475 38.231658964 38.734711576 39.23775732 39.740817166 40.243898303 
40.746959877 41.249989764 41.753033542 42.256101504 42.759155431 43.262183076 43.765213127 44.26824803 44.771295815 
45.274371639 45.777438086 46.280482489 46.783528241 47.286577427 47.789626552 48.292675511 48.795722135 49.298761716 
49.801803267 50.304851331 50.807902137 51.310962923 51.814021793 52.317072945 52.820120589 53.323152479 53.826191107 
54.329263745 54.83232791 55.335343582 55.83836563 56.341429625 56.844493463 57.347556088 57.850615989 58.353651121 
58.856688279 59.359747877 59.862804813 60.36582449 60.868845065 61.371881606 61.874918565 62.377983426 62.881048782 
63.384119685 63.887190587 
ParallelTransportNormals 3 128 double
0.075195099317 0 0.99716884079 0.078760520167 8.9660696124e-05 0.99688661493 0.082325941016 0.00017932139225 0.99660438907 
0.094749357473 0.0017986382288 0.99541560857 0.10796391878 0.0035545750901 0.99414585986 0.13310308503 0.010262243495 0.99068310269 
0.15842411169 0.017045430039 0.98718690026 0.19337342108 0.032087284422 0.97979827371 0.22885926671 0.04758935323 0.97219274176 
0.26528872344 0.069801236382 0.96059390574 0.3017847918 0.092486780445 0.94871317339 0.33135117089 0.11549121234 0.93558080539 
0.36029811697 0.13852414906 0.92233655583 0.38098727558 0.15728644396 0.91062926287 0.40077436176 0.17558221821 0.8990898655 
0.41339049338 0.1879086232 0.89076694666 0.42507326188 0.19945806203 0.88286268093 0.42986273879 0.20419401994 0.87948165773 
0.43360390939 0.20789380886 0.87678851252 0.42920456927 0.20378415771 0.87987238531 0.42338095514 0.1983081571 0.88396701245 
0.40412580551 0.18171310429 0.89591275106 0.38220045301 0.16290757261 0.90941929861 0.32765465124 0.12187419125 0.93342671088 
0.26582351467 0.075876521205 0.95977934884 0.10477148377 -0.021603248244 0.97112617433 -0.08099684966 -0.13190740466 0.9787349948 
-0.32467652557 -0.24718365859 0.85599744552 -0.58424590632 -0.36382415583 0.69749548025 -0.71239997911 -0.41609592483 0.53161138188 
-0.80559594678 -0.45124481216 0.36376354437 -0.84015367602 -0.46808702723 0.25979078547 -0.85807473078 -0.47973532523 0.17394048247 
-0.8630741649 -0.48934449991 0.11399493524 -0.86404971188 -0.49831867668 0.062116318344 -0.8605567467 -0.50757004158 0.022270926136 
-0.85554761876 -0.5169154562 -0.013491602161 -0.84831693205 -0.5270488036 -0.042161386955 -0.84026716987 -0.5374726571 -0.068216119566 
-0.83129296549 -0.54829662412 -0.088484976726 -0.82194977804 -0.55928029298 -0.10644445202 -0.81318194471 -0.56948012259 -0.11905250367 
-0.8046617353 -0.57934259935 -0.12935738153 -0.79836811939 -0.58672786605 -0.13522149279 -0.79310411755 -0.59296762942 -0.13903211936 
-0.7913747954 -0.59501640356 -0.14029045325 -0.79139909481 -0.59498594857 -0.1402825464 -0.79564297953 -0.58912662477 -0.14061684293 
-0.80212762636 -0.5801719474 -0.14113286262 -0.81213485076 -0.56444433555 -0.1460426896 -0.82414020953 -0.54487486844 -0.15344484422 
-0.83641165427 -0.52043378465 -0.16863274915 -0.84884385085 -0.49304958694 -0.18852429801 -0.85762574262 -0.46598855675 -0.21431580165 
-0.86406605232 -0.43913483069 -0.24389198329 -0.86651246956 -0.41575467038 -0.27411021843 -0.86624014549 -0.39473905214 -0.30476551527 
-0.86377929083 -0.37676136916 -0.33332684461 -0.85972881733 -0.36099026222 -0.3603672401 -0.85494517956 -0.3471055663 -0.38474596086 
-0.84959209494 -0.33468604112 -0.40705736548 -0.8443283942 -0.32332722328 -0.42685740421 -0.83913897428 -0.31284988675 -0.44457041856 
-0.83458258488 -0.30323658872 -0.4596912569 -0.83058929078 -0.29439187295 -0.47250629464 -0.82757045481 -0.28686089819 -0.4824561807 
-0.82547871762 -0.28057981573 -0.48968016345 -0.82428811936 -0.27666053987 -0.49396858233 -0.82401326092 -0.27514133831 -0.49527387322 
-0.82393672475 -0.27662565267 -0.49455403201 -0.8240751394 -0.28136531614 -0.49163925924 -0.8237027981 -0.28833136448 -0.48816009496 
-0.82274102333 -0.29786675296 -0.48402959957 -0.82115245466 -0.30837389786 -0.48010887996 -0.81879305002 -0.32007611632 -0.47644614423 
-0.81587925962 -0.33243689106 -0.47295946331 -0.81223643699 -0.3456636851 -0.46970429925 -0.80796283032 -0.35990059474 -0.46634606124 
-0.80280117273 -0.37555959823 -0.46284271033 -0.79667497476 -0.39305115413 -0.45880601345 -0.78909263703 -0.41330926337 -0.45396413902 
-0.78007297261 -0.43610681523 -0.44802619098 -0.76872519028 -0.46301764346 -0.44031287162 -0.75542171959 -0.49265037952 -0.43088342577 
-0.73871313479 -0.52702231995 -0.41846597497 -0.71962914927 -0.56347050891 -0.40394306161 -0.69609768946 -0.6038060681 -0.38547808045 
-0.67014022519 -0.6447881405 -0.36510611427 -0.63928866009 -0.68707445649 -0.34088709129 -0.60650366925 -0.72842353302 -0.31556262296 
-0.56951052934 -0.7677326846 -0.28783212542 -0.53143712241 -0.80510326504 -0.25995628953 -0.49082432462 -0.8379168334 -0.23173880583 
-0.45013373106 -0.86848681764 -0.20409614591 -0.40924502854 -0.89334345544 -0.17791728994 -0.36910461443 -0.91620166541 -0.15256282908 
-0.33103453652 -0.93353070051 -0.12948927358 -0.29404449006 -0.94938514609 -0.10706969883 -0.26031384049 -0.96078946897 -0.086623754458 
-0.22800145984 -0.97112729552 -0.066782487701 -0.20037963465 -0.97793796295 -0.048941034843 -0.17456794175 -0.98401354125 -0.031937477564 
-0.15534788692 -0.98741227563 -0.017985136179 -0.13814188315 -0.99037229702 -0.00528067267 -0.12905356405 -0.99156407433 0.0023941868818 
-0.12192426101 -0.99250318938 0.0083678863311 -0.12359364785 -0.99230750159 0.0067010255674 -0.1269323554 -0.99185503096 0.0030058088547 
-0.13869773051 -0.99010633029 -0.010928471662 -0.15175219739 -0.9878713341 -0.027043175286 -0.17218400614 -0.98285331786 -0.055636219862 
-0.19349815849 -0.97692967918 -0.086339638635 -0.22061697464 -0.96504823232 -0.13092655228 -0.24811241666 -0.95183939333 -0.17711482894 
-0.27849418018 -0.92845791137 -0.23557536022 -0.30866164378 -0.90377925082 -0.2945229367 -0.33688139698 -0.8673109071 -0.35789712693 
-0.3645249023 -0.83028814167 -0.4205802541 -0.38578587397 -0.78712458977 -0.47560915229 -0.40655166182 -0.74418841371 -0.52959276849 
-0.42038450365 -0.70443567039 -0.56894165082 -0.43388587144 -0.66537798421 -0.60735759141 -0.44149568936 -0.63867409764 -0.62919162175 
-0.44906969749 -0.61208646675 -0.65090002442 -0.45424575469 -0.59328373211 -0.66419594998 -0.45899728347 -0.57602315489 -0.67640137404 
-0.45899728347 -0.57602315489 -0.67640137404 -0.45899728347 -0.57602315489 -0.67640137404 
FrenetTangent 3 128 double
-0.98519034883 -0.13079602865 0.11087098566 -0.98519034883 -0.13079602865 0.11087098566 -0.98227956611 -0.14653203457 0.1168555384 
-0.97708962644 -0.17114696355 0.12650920433 -0.96906507727 -0.20344261186 0.13972823511 -0.95764214534 -0.2418469446 0.15630603587 
-0.94240356026 -0.28449251763 0.1758963815 -0.9232202292 -0.32933698216 0.19799383973 -0.90034892561 -0.37431899918 0.22193940389 
-0.87446001769 -0.41753270546 0.24695367447 -0.84658753821 -0.4573874684 0.27218788344 -0.81801767964 -0.49271785091 0.29677633867 
-0.79014628355 -0.52282843818 0.31987384204 -0.76434337199 -0.54747206214 0.34066633363 -0.74184918028 -0.56678279037 0.35835326461 
-0.72371181913 -0.58118500496 0.37210911418 -0.71076288078 -0.59129765183 0.38102915145 -0.70361227729 -0.59784711251 0.38406847476 
-0.70264245744 -0.60158818233 0.37998057303 -0.7079841284 -0.60322761172 0.36725321291 -0.71945492283 -0.60334051185 0.34404191718 
-0.73643584543 -0.6022710974 0.30810999788 -0.75764436105 -0.60001920794 0.2568111607 -0.7807853096 -0.59609608973 0.18719976529 
-0.80208193737 -0.58937352689 0.096454193982 -0.815835077 -0.57803111959 -0.017121679958 -0.81449505217 -0.55981249196 -0.15234101167 
-0.79005383829 -0.53288077654 -0.30307261606 -0.73714221256 -0.49724700495 -0.45756614224 -0.65634274182 -0.45587561557 -0.60115857174 
-0.55467287245 -0.41417567955 -0.7216623248 -0.44228228389 -0.37795512336 -0.8133488219 -0.32820874622 -0.35150903718 -0.87676702475 
-0.21822453187 -0.33700600585 -0.91586298414 -0.11499367268 -0.33490211116 -0.93520961885 -0.019158908152 -0.34461234569 -0.93854955513 
0.069595393061 -0.3650031304 -0.92840141968 0.1518230453 -0.39465460821 -0.90619948308 0.22793556918 -0.43197596319 -0.87260652274 
0.29802258465 -0.475249223 -0.82784099626 0.36180638765 -0.52266802852 -0.77195483665 0.41869173166 -0.57238218583 -0.70503607509 
0.46783629754 -0.62255044871 -0.62734371561 0.50824947906 -0.67137975112 -0.5393808458 0.53887429485 -0.71716248914 -0.44191906332 
0.55866090651 -0.75827839254 -0.33602361665 0.56664703594 -0.79318220244 -0.22309892512 0.56205234757 -0.82041507508 -0.10495838785 
0.54442170345 -0.8386574444 0.01608414643 0.51380686698 -0.84686840649 0.1371729038 0.47096501705 -0.84449671453 0.25498480712 
0.41749169284 -0.83171680966 0.36598884536 0.35580513201 -0.80959046062 0.46686828348 0.28892732776 -0.78006194572 0.55499942353 
0.22011507201 -0.74574312558 0.62882155316 0.15244996453 -0.70955940568 0.68795672693 0.088515749378 -0.6743700595 0.73306888146 
0.030247881665 -0.64267947219 0.76553782512 -0.021060822862 -0.61647566535 0.78709224096 -0.064653667199 -0.59719150241 0.7994887196 
-0.10015231431 -0.58574654094 0.80428260189 -0.12741607581 -0.58260154381 0.80270828124 -0.14643040553 -0.58781746417 0.79563104839 
-0.1572419289 -0.60108970106 0.78355991926 -0.15993867955 -0.62175743627 0.76670549054 -0.15467269759 -0.64879730292 0.74507611446 
-0.14171338104 -0.6808303453 0.71860097311 -0.12151307582 -0.71615416187 0.68728290306 -0.094784470771 -0.75282907942 0.65135572561 
-0.062541577119 -0.78883941466 0.61140897034 -0.026070817909 -0.82230077912 0.56845557533 0.013157663904 -0.85168075193 0.52389576509 
0.053635596851 -0.87596046156 0.47939179439 0.093983520557 -0.89469273383 0.43668296268 0.13308887816 -0.90794892569 0.39738658615 
0.17018826625 -0.91617640715 0.36284534585 0.20487665659 -0.92002323332 0.33404012594 0.23708554486 -0.92017041012 0.31157159813 
0.26701500909 -0.91720969022 0.29568457702 0.29504707416 -0.91157682513 0.28631261921 0.32168856154 -0.90352047923 0.28313815177 
0.34749995939 -0.89311586371 0.28563583845 0.37304003047 -0.88029680924 0.29311885526 0.3988229193 -0.86489714685 0.30478386509 
0.42526591983 -0.846708095 0.31974098782 0.45266500989 -0.82551934683 0.33706408417 0.48116584204 -0.80116439046 0.35583008854 
0.51074620329 -0.77355707345 0.37516365756 0.54121328549 -0.74271396502 0.39428941879 0.57220986891 -0.70877549685 0.41256897725 
0.60323736409 -0.67201057935 0.42954215603 0.63369116848 -0.63280955948 0.44495793556 0.66290315828 -0.59167735909 0.45877805689 
0.6901967339 -0.54920119612 0.47117567286 0.71492971911 -0.50602783869 0.48250525718 0.73653377919 -0.46283373299 0.49325746595 
0.75454797149 -0.42028826414 0.50399914062 0.76862555441 -0.37904026295 0.51530887454 0.77853690582 -0.33969918113 0.5277165457 
0.78416156631 -0.30284094357 0.54164379514 0.78547875963 -0.26900498873 0.55736831109 0.78255406963 -0.23870347619 0.57500415525 
0.77553120544 -0.21243556155 0.59449346638 0.76462505834 -0.19068667013 0.61561929306 0.75011254008 -0.17392997803 0.63802785203 
0.73232538603 -0.16262230596 0.66125147605 0.71163197065 -0.15716616555 0.684747205 0.68841560218 -0.15791355542 0.70791755712 
0.66305480499 -0.16513468134 0.73012934649 0.63590847389 -0.17896945362 0.75072654643 0.60729960728 -0.19940705342 0.76904097033 
0.57751735076 -0.22625463005 0.78439948492 0.54683253466 -0.25909680208 0.79614259162 0.51552414203 -0.29725596538 0.80366270912 
0.48391161315 -0.33978746112 0.80645770622 0.45238114238 -0.38549236055 0.80420578335 0.42139946035 -0.43297972256 0.7968381609 
0.39150710749 -0.48074697721 0.78460469581 0.36328260886 -0.52729045558 0.76810840482 0.33728641328 -0.57123854584 0.74828096271 
0.31399943205 -0.6114454761 0.7263186535 0.29377598775 -0.64704297392 0.70358443624 0.27681938863 -0.67744527117 0.68149756467 
0.26319136084 -0.70231670617 0.66142388211 0.25284326295 -0.72151621261 0.64458097965 0.24566622285 -0.73500747928 0.63199059515 
0.24154591465 -0.74282219638 0.62439631299 0.24154591465 -0.74282219638 0.62439631299 
FrenetNormal 3 128 double
0.16162164171 -0.9243067356 0.34573906844 0.16162164171 -0.9243067356 0.34573906844 0.17894312463 -0.91864222022 0.35224399127 
0.20610733876 -0.90912017843 0.36196721687 0.24190460745 -0.89520414448 0.37428825871 0.28473065859 -0.87633889052 0.38853391232 
0.33264783997 -0.85211939397 0.40402716863 0.3834918815 -0.82243400722 0.42016220748 0.4350191771 -0.78755600272 0.43647893205 
0.48507908129 -0.7481878685 0.45267339035 0.53178224255 -0.70545061286 0.46855851216 0.57363450256 -0.66086872131 0.48393800292 
0.60963806832 -0.61647802667 0.49829335565 0.63939240649 -0.57517157869 0.51024994423 0.66332322685 -0.54192323459 0.51606346949 
0.68321882085 -0.52744203449 0.5049920228 0.70220235515 -0.56440620645 0.43400171261 0.63815603375 -0.76937838609 -0.028526752651 
-0.25180504303 -0.28923540388 -0.923545939 -0.4352874691 -0.036772869063 -0.89954020218 -0.44388200702 0.018443176238 -0.89589542531 
-0.41089472132 0.036400554735 -0.91095583187 -0.35431330764 0.047673084702 -0.93391078644 -0.27744157212 0.062322735384 -0.95871896336 
-0.17988973191 0.084421244764 -0.98005751759 -0.060819097719 0.11520853271 -0.99147770088 0.078844220046 0.15333920346 -0.98502318635 
0.23425023693 0.19444530975 -0.95253233437 0.3958783792 0.23098407918 -0.88877818608 0.55161297606 0.25364834758 -0.7945977853 
0.69103064582 0.25381377823 -0.67679776338 0.80813304128 0.225375042 -0.54417559486 0.90008182948 0.16522689163 -0.40317834084 
0.96355393747 0.074393046589 -0.25696202871 0.99336523411 -0.040097945109 -0.10778527945 0.98561231927 -0.164180551 0.04016345082 
0.9427496127 -0.28021541296 0.18083829819 0.87412725942 -0.37433532674 0.30947471219 0.7910019887 -0.44043718696 0.42465390404 
0.70153164133 -0.47907494792 0.52757989963 0.60964186763 -0.49380653204 0.62007411021 0.51634113629 -0.48861289761 0.7033130649 
0.42113596305 -0.46702587531 0.77751613 0.32355524653 -0.43156479102 0.84205928152 0.2230193417 -0.38442718426 0.89581142727 
0.11993041108 -0.32702913077 0.9373732683 0.014988813819 -0.26079632235 0.96527748016 -0.090272077006 -0.18698889782 0.97820555314 
-0.19401985018 -0.10724841926 0.97511746692 -0.29399441474 -0.023599272594 0.9555157552 -0.38795281151 0.061316237193 0.91963739327 
-0.47380894666 0.14442942024 0.86870318558 -0.55015392025 0.22238209436 0.80490798737 -0.61651090397 0.29190960255 0.73123394972 
-0.67348183574 0.35015479187 0.65100986065 -0.72290252285 0.39460213035 0.56718700724 -0.76760759478 0.4228288109 0.48165794617 
-0.81145148325 0.43141616158 0.39424178605 -0.85883640323 0.41418146386 0.30141955391 -0.91396950486 0.35705592823 0.1927973244 
-0.97291751355 0.226906585 0.044101173616 -0.98094065417 -0.045680083266 -0.1888617563 -0.74228669885 -0.46636083367 -0.48116320466 
-0.28651699464 -0.73153628734 -0.61867816519 0.043720375583 -0.78040367726 -0.6237456447 0.23354715164 -0.75678859835 -0.61051350957 
0.35047743853 -0.71341425482 -0.60679952711 0.43044479863 -0.66193802197 -0.6136410436 0.48980767756 -0.60489111644 -0.62784964462 
0.53653999172 -0.54312851671 -0.64586086088 0.57517536226 -0.4774327167 -0.66425243972 0.60846098931 -0.40895034209 -0.68009914145 
0.63906564242 -0.3387772328 -0.69052522851 0.66959288225 -0.26779144035 -0.69277205234 0.70314623609 -0.19607237452 -0.6834771354 
0.74298892793 -0.12257304613 -0.65798427135 0.7917742513 -0.044856832502 -0.60916450944 0.84961435269 0.040863087524 -0.52581903711 
0.90821193546 0.13690121622 -0.39548595081 0.94697763265 0.23909101132 -0.21463655691 0.94270804126 0.33355228801 -0.0066648405677 
0.89546239768 0.40645760685 0.18149189564 0.8302459777 0.45773918603 0.3180667447 0.77011172036 0.49632985324 0.40073010238 
0.72399379838 0.53024710923 0.44121534772 0.69124648893 0.56366329741 0.45217472143 0.66821313258 0.59793165491 0.44268379856 
0.65057592515 0.63302631151 0.41955768918 0.63474507402 0.66838813633 0.38775764367 0.6179052271 0.70337398123 0.35136615212 
0.59795176479 0.73746553249 0.31400362318 0.57335352793 0.77033711259 0.27900979369 0.54316620314 0.80178783143 0.2492122572 
0.5064421548 0.83170132139 0.22757252876 0.46247403472 0.85980179885 0.21646855176 0.41014452924 0.88547668415 0.21843192753 
0.34835909186 0.90738874882 0.23514166291 0.27535544705 0.92314098746 0.2683096999 0.18971637032 0.9288958132 0.31805701854 
0.090279026805 0.91922219022 0.38324960839 -0.02241296193 0.88764046228 0.45999137911 -0.14589130164 0.8275546107 0.54209694189 
-0.27452598644 0.73450619415 0.62059337212 -0.40079486448 0.60734412764 0.68592753789 -0.51601806091 0.44944992657 0.72919141816 
-0.61213944833 0.26817425856 0.74388699602 -0.68267485786 0.075512107177 0.72681012659 -0.72490541444 -0.11694079795 0.67884975502 
-0.73962144994 -0.29489093406 0.6049788821 -0.73175292498 -0.44896252381 0.51280630748 -0.70858993161 -0.57370764062 0.41080390932 
-0.67714871582 -0.66945290824 0.30545444885 -0.64333853207 -0.7385850493 0.20151341919 -0.6105986636 -0.7854528007 0.10115913146 
-0.58066037471 -0.81412795655 0.0054036649402 -0.55376104429 -0.82827159545 -0.085527013249 -0.52931587795 -0.83089750614 -0.1715635032 
-0.50652914233 -0.82444979977 -0.25240989607 -0.48463632985 -0.81106554282 -0.32756726491 -0.46291494891 -0.79276033672 -0.39653599913 
-0.44135212978 -0.77133204931 -0.45853589527 -0.42005270301 -0.74857215599 -0.51302578295 -0.39994369371 -0.72609053762 -0.55931884739 
-0.38159214128 -0.70546955966 -0.59724378448 -0.36629504738 -0.68802283749 -0.6264603047 -0.35541167687 -0.67486454508 -0.64671507307 
-0.34843902812 -0.66693021904 -0.65863064506 -0.34843902812 -0.66693021904 -0.65863064506 
FrenetBinormal 3 128 double
0.057257501729 0.35853794416 0.93175754416 0.057257501729 0.35853794416 0.93175754416 0.055733402532 0.36691257008 0.92858438161 
0.053062480339 0.37974888814 0.92356654072 0.048939114234 0.39651058421 0.9167247786 0.043011318493 0.41658156986 0.90808029498 
0.034942011613 0.43926819352 0.89767617212 0.024461913582 0.46383127961 0.88558577159 0.011407352766 0.48953123437 0.87191114391 
-0.0042382020392 0.51563684246 0.85679675789 -0.022297682491 0.54142048037 0.84045623134 -0.042314693324 0.56611098964 0.82324225726 
-0.063326741968 0.58873191425 0.80584394078 -0.083405996251 0.6078256298 0.78967806323 -0.098295932964 0.62054530565 0.77798549678 
-0.097227803045 0.61970064569 0.77879256805 -0.041568975643 0.57603187505 0.81636958493 0.31254861996 0.22502384115 0.92286382044 
0.66549815725 -0.74460361268 0.051746136824 0.55613244212 -0.79672090757 -0.23654281274 0.53418477876 -0.79727039078 -0.28108103126 
0.5374269937 -0.7974612999 -0.27427668803 0.54812143015 -0.79856385286 -0.24871403401 0.55982182378 -0.80049067981 -0.21404251251 