# vtk DataFile Version 4.2
vtk output
ASCII
DATASET POLYDATA
POINTS 128 float
0 0 0 -0.326323 -0.0779781 0.019548 -0.969102 -0.210229 0.0821789 
-1.50827 -0.271052 0.19107 -1.95191 -0.271147 0.335144 -2.41519 -0.254213 0.501048 
-2.8926 -0.220887 0.68486 -3.354 -0.163365 0.884288 -3.80277 -0.0874777 1.09302 
-4.25027 -0.00204119 1.30421 -4.69876 0.0891654 1.51408 -5.14809 0.183654 1.7198 
-5.60031 0.27761 1.91839 -6.05797 0.366775 2.10686 -6.5225 0.446817 2.28245 
-6.99484 0.51322 2.44253 -7.47505 0.560558 2.58479 -7.96258 0.583091 2.70748 
-8.4549 0.575171 2.81145 -8.94854 0.53145 2.8992 -9.43876 0.448289 2.9775 
-9.9202 0.323133 3.05535 -10.3866 0.156241 3.14526 -10.8313 -0.0501305 3.26075 
-11.2489 -0.287741 3.41187 -11.635 -0.545798 3.60593 -11.9911 -0.813834 3.84054 
-12.3217 -1.08229 4.10858 -12.6341 -1.34764 4.40032 -12.9368 -1.60951 4.7049 
-13.2375 -1.87017 5.01229 -13.5433 -2.13332 5.31278 -13.8595 -2.40377 5.59542 
-14.1905 -2.68699 5.84812 -14.537 -2.9889 6.0541 -14.8965 -3.31517 6.1941 
-15.2554 -3.66599 6.24959 -15.5939 -4.03788 6.20422 -15.891 -4.42153 6.05988 
-16.1263 -4.80457 5.8298 -16.2915 -5.17886 5.5333 -16.3859 -5.53911 5.19287 
-16.4137 -5.88327 4.82559 -16.3814 -6.2114 4.44472 -16.2961 -6.52466 4.05975 
-16.1651 -6.82497 3.67751 -15.9947 -7.11478 3.30298 -15.7906 -7.3969 2.93979 
-15.5576 -7.67404 2.5904 -15.3003 -7.94897 2.25656 -15.0218 -8.22633 1.94246 
-14.725 -8.51201 1.65386 -14.4131 -8.80857 1.39312 -14.0899 -9.11709 1.16184 
-13.759 -9.45721 0.994492 -13.427 -9.85961 0.952218 -13.1511 -10.2761 1.08436 
-13.0259 -10.5954 1.42341 -13.0514 -10.7806 1.90985 -13.1549 -10.8547 2.41742 
-13.2924 -10.8488 2.89835 -13.4459 -10.7979 3.37095 -13.6052 -10.72 3.84248 
-13.7659 -10.6181 4.30912 -13.9234 -10.4971 4.77104 -14.0731 -10.3643 5.23224 
-14.2102 -10.2264 5.69615 -14.3293 -10.09 6.16545 -14.4234 -9.96486 6.64351 
-14.4833 -9.86417 7.13411 -14.5001 -9.80667 7.63497 -14.4649 -9.81624 8.13742 
-14.3802 -9.90521 8.6278 -14.2599 -10.0729 9.0879 -14.1201 -10.3095 9.51045 
-13.9776 -10.5953 9.90071 -13.8442 -10.9155 10.2652 -13.7254 -11.2611 10.611 
-13.625 -11.6249 10.9435 -13.5446 -12.0023 11.2664 -13.4847 -12.3893 11.5822 
-13.4444 -12.783 11.8926 -13.4217 -13.1813 12.1989 -13.4132 -13.5825 12.5021 
-13.4148 -13.9856 12.8028 -13.4213 -14.3897 13.1021 -13.4261 -14.7943 13.4007 
-13.4212 -15.1988 13.6997 -13.3972 -15.6019 13.9996 -13.3425 -16.0013 14.301 
-13.2448 -16.3926 14.6029 -13.0906 -16.767 14.9024 -12.8715 -17.1149 15.1949 
-12.5879 -17.4246 15.4733 -12.2456 -17.6888 15.7326 -11.8594 -17.9078 15.9715 
-11.4427 -18.0851 16.1913 -11.0062 -18.2283 16.397 -10.5581 -18.3446 16.5938 
-10.1032 -18.4394 16.7866 -9.6455 -18.517 16.98 -9.18764 -18.5802 17.1784 
-8.73217 -18.6307 17.3857 -8.28124 -18.6691 17.6052 -7.83695 -18.6956 17.8396 
-7.40125 -18.7094 18.0906 -6.97587 -18.7098 18.3592 -6.56211 -18.6962 18.645 
-6.1608 -18.6687 18.9471 -5.7718 -18.6278 19.2634 -5.39439 -18.5749 19.5916 
-5.02671 -18.5126 19.9291 -4.66638 -18.444 20.2732 -4.31026 -18.373 20.6211 
-3.95509 -18.3037 20.9705 -3.59787 -18.2404 21.3187 -3.23566 -18.1874 21.6633 
-2.86579 -18.1487 22.0024 -2.48668 -18.1279 22.3334 -2.10009 -18.126 22.6538 
-1.70653 -18.1445 22.9621 -1.30046 -18.1871 23.262 -0.882814 -18.2543 23.554 
-0.480693 -18.3333 23.8243 -0.0997899 -18.4201 24.0723 0.357079 -18.5537 24.3582 
0.897604 -18.7384 24.6884 1.17126 -18.8368 24.8542 
LINES 1 129
128 0 1 2 3 4 5 6 7 8 9 10 11 12 13 14 15 16 17 18 19 20 21 22 23 24 25 26 27 28 29 30 31 32 33 34 35 36 37 38 39 40 41 42 43 44 45 46 47 48 49 50 51 52 53 54 55 56 57 58 59 60 61 62 63 64 65 66 67 68 69 70 71 72 73 74 75 76 77 78 79 80 81 82 83 84 85 86 87 88 89 90 91 92 93 94 95 96 97 98 99 100 101 102 103 104 105 106 107 108 109 110 111 112 113 114 115 116 117 118 119 120 121 122 123 124 125 126 127 

CELL_DATA 1
FIELD FieldData 2
Length 1 1 double
58.498826477 
Tortuosity 1 1 double
0.87449245021 
POINT_DATA 128
SCALARS MaximumInscribedSphereRadius float
LOOKUP_TABLE default
0.9796 0.875112 0.770624 0.778101 0.795271 0.967768 1.14293 1.19357 1.23701 
1.21679 1.19186 1.11417 1.03149 1.034 1.0464 1.13294 1.22972 1.32992 
1.43066 1.39721 1.33907 1.21735 1.08242 1.11916 1.19582 1.29495 1.39984 
1.45255 1.49047 1.43723 1.35549 1.25224 1.1416 1.07189 1.01753 1.04034 
1.09451 1.10962 1.10781 1.08039 1.04124 1.02168 1.01169 1.05886 1.13592 
1.16052 1.15564 1.12223 1.07157 1.08687 1.14499 1.21902 1.30412 1.32833 
1.30684 1.24083 1.13959 1.16928 1.28816 1.29533 1.21849 1.13817 1.05507 
1.05907 1.13743 1.19173 1.22401 1.27188 1.33506 1.46586 1.66771 1.79375 
1.83496 1.82983 1.77016 1.70239 1.62446 1.57349 1.55872 1.56932 1.61649 
1.67233 1.74161 1.74355 1.63327 1.52444 1.41824 1.36836 1.42776 1.45994 
1.43506 1.39808 1.33377 1.31671 1.41417 1.49363 1.52603 1.54271 1.5147 
1.473 1.38858 1.31541 1.28088 1.25503 1.26223 1.26679 1.2601 1.25412 
1.25147 1.25068 1.25999 1.26724 1.26178 1.25144 1.20566 1.15494 1.06149 
0.98089 1.03588 1.09259 1.17246 1.24917 1.27228 1.29398 1.22383 1.15042 
1.04021 0.93 
TEXTURE_COORDINATES TCoords 2 float
0 0 0.00787402 0 0.015748 0 0.023622 0 0.0314961 
0 0.0393701 0 0.0472441 0 0.0551181 0 0.0629921 0 
0.0708661 0 0.0787402 0 0.0866142 0 0.0944882 0 0.102362 
0 0.110236 0 0.11811 0 0.125984 0 0.133858 0 
0.141732 0 0.149606 0 0.15748 0 0.165354 0 0.173228 
0 0.181102 0 0.188976 0 0.19685 0 0.204724 0 
0.212598 0 0.220472 0 0.228346 0 0.23622 0 0.244094 
0 0.251969 0 0.259843 0 0.267717 0 0.275591 0 
0.283465 0 0.291339 0 0.299213 0 0.307087 0 0.314961 
0 0.322835 0 0.330709 0 0.338583 0 0.346457 0 
0.354331 0 0.362205 0 0.370079 0 0.377953 0 0.385827 
0 0.393701 0 0.401575 0 0.409449 0 0.417323 0 
0.425197 0 0.433071 0 0.440945 0 0.448819 0 0.456693 
0 0.464567 0 0.472441 0 0.480315 0 0.488189 0 
0.496063 0 0.503937 0 0.511811 0 0.519685 0 0.527559 
0 0.535433 0 0.543307 0 0.551181 0 0.559055 0 
0.566929 0 0.574803 0 0.582677 0 0.590551 0 0.598425 
0 0.606299 0 0.614173 0 0.622047 0 0.629921 0 
0.637795 0 0.645669 0 0.653543 0 0.661417 0 0.669291 
0 0.677165 0 0.685039 0 0.692913 0 0.700787 0 
0.708661 0 0.716535 0 0.724409 0 0.732283 0 0.740157 
0 0.748031 0 0.755906 0 0.76378 0 0.771654 0 
0.779528 0 0.787402 0 0.795276 0 0.80315 0 0.811024 
0 0.818898 0 0.826772 0 0.834646 0 0.84252 0 
0.850394 0 0.858268 0 0.866142 0 0.874016 0 0.88189 
0 0.889764 0 0.897638 0 0.905512 0 0.913386 0 
0.92126 0 0.929134 0 0.937008 0 0.944882 0 0.952756 
0 0.96063 0 0.968504 0 0.976378 0 0.984252 0 
0.992126 0 1 0 
FIELD FieldData 7
Curvature 1 128 double
0 0.020489194731 0.036542573868 0.048623473171 0.055635243532 0.057126989623 0.053304646122 0.044900217487 0.032974657988 
0.018774809659 0.0054383330713 0.015168883434 0.031075885996 0.046591518351 0.061074650689 0.074218019757 0.085887132497 0.096094109444 
0.10491086311 0.11234790129 0.11821021336 0.12199380042 0.12294978503 0.12030034082 0.11353378034 0.1027721602 0.089117173439 
0.075170816001 0.066249949015 0.069739192421 0.088318092237 0.11832144664 0.15603481885 0.19905100399 0.24490305641 0.28988857725 
0.32871721998 0.35545643722 0.36556065032 0.3581220138 0.33609136319 0.30489588099 0.27003902152 0.2358315975 0.20516802858 
0.18003716671 0.16230075811 0.15430151089 0.15888173513 0.1793077842 0.21955821783 0.28610230505 0.38955910358 0.54295722323 
0.74765086025 0.95648549364 1.0538588272 0.95915178677 0.74242424382 0.52285302648 0.35331531185 0.23349470294 0.14882678973 
0.086825696529 0.042227623448 0.033313726059 0.062965600295 0.098105456106 0.13211561174 0.16239332092 0.18631071013 0.20130860851 
0.2058471532 0.20031356347 0.18670277277 0.16804839819 0.14722935238 0.12637943221 0.10660713526 0.088168789123 0.070808980983 
0.05422317064 0.038851764391 0.028149275001 0.030942653732 0.04722995204 0.069605993433 0.09466089479 0.12063253075 0.14574495819 
0.16787712771 0.18476650501 0.19435486147 0.19555702383 0.18862508809 0.17514422335 0.15746065167 0.13809880561 0.11921989564 
0.10261140092 0.089426867443 0.080185280763 0.074716576838 0.071958781967 0.0705418327 0.069098236315 0.066562347792 0.062330314524 
0.056130544307 0.047982695936 0.038260144307 0.027594301985 0.017677229441 0.013763922561 0.020317795241 0.030706818563 0.041051362364 
0.049973199858 0.056783606283 0.060954444745 0.062173312864 0.060311002214 0.055427937537 0.047729713801 0.037591951991 0.025585766156 
0.01230758342 0 
Torsion 1 128 double
0 0 0.017058422882 0.024830804274 0.034724318267 0.048028562213 0.067778483795 0.10206328383 0.18059909678 
0.49858712962 5.5665548793 0.82795150501 0.29400900604 0.21808162332 0.20880391082 0.21875529277 0.23465011597 0.24985281425 
0.25934770371 0.25914012662 0.24680525286 0.22168766981 0.18401912619 0.13273757682 0.062941079538 -0.038564988109 -0.20008583328 
-0.46199999109 -0.77215831307 -0.79594557109 -0.51305737944 -0.26400175282 -0.11541976558 -0.028778231597 0.025216619565 0.061772153929 
0.088873278292 0.11055554186 0.12974034209 0.14821545489 0.1675147247 0.18991721512 0.21810645724 0.2561383224 0.30879003156 
0.37882169243 0.46056350196 0.52899418889 0.54541910517 0.49431280984 0.40207509173 0.30375757503 0.21671256441 0.14433944489 
0.085831268075 0.040991754539 0.0072971294711 -0.021395497889 -0.050568024695 -0.082354500461 -0.11942907822 -0.17289640309 -0.27646371567 
-0.56424288281 -1.8273021381 -2.5429276801 -0.70219885988 -0.3189511276 -0.20851075522 -0.16758179362 -0.15231946019 -0.1493775099 
-0.15359125373 -0.16246187824 -0.1737319155 -0.18468421668 -0.19147843115 -0.18860505738 -0.16947292988 -0.12464542295 -0.03690052933 
0.13868833538 0.53745232553 1.3229039365 1.2044548487 0.52184200845 0.23141341347 0.11932328815 0.072049239266 0.051198679737 
0.043645306862 0.043695872567 0.048695786726 0.058720047073 0.074570874929 0.09721655873 0.12857951012 0.17076676968 0.22443960005 
0.28534025106 0.34110001409 0.37063696441 0.35887466186 0.31227816428 0.25163792261 0.19626325446 0.15435289936 0.13050620087 
0.12670220266 0.15036949356 0.2281907036 0.45003882173 1.13511137 1.8888725632 0.83570586141 0.33030686299 0.1546831763 
0.07974153686 0.041132572387 0.019099233607 0.0065251033924 -0.00087876450333 -0.0050563965879 -0.0062009152627 -0.005903794544 -0.0051647502017 
0 0 
Abscissas 1 128 double
0 0.50290460771 1.0058092154 1.5087129436 2.0116165955 2.514523508 3.0174304762 3.5203329026 4.0232350666 
4.5261378181 5.0290406131 5.5319472204 6.0348541883 6.5377605796 7.0406669041 7.5435691165 8.0464707614 8.5493737682 
9.0522769937 9.5551823975 10.058088202 10.560995035 11.063902082 11.566811229 12.069720865 12.572634557 13.075549292 
13.578433394 14.081308819 14.584227019 15.087158585 15.590068538 16.092971073 16.595870655 17.098769128 17.601660117 
18.104548063 18.607447196 19.11035118 19.613255097 20.116158983 20.61906397 21.121969493 21.624870983 22.127770364 
22.630674465 23.13358122 23.636487469 24.139393413 24.642296766 25.145198437 25.648110577 26.15103001 26.653936386 
27.156832964 27.659725157 28.16261388 28.66551299 29.168419177 29.671321967 30.174222203 30.677123032 31.180024334 
31.682934755 32.18585296 32.688756028 33.191645243 33.694541947 34.197446005 34.700352238 35.203260757 35.706168171 
36.209074351 36.711988321 37.214911461 37.717813107 38.220687807 38.723569519 39.226460647 39.729374569 40.232321343 
40.735236457 41.238102573 41.740991371 42.243917977 42.746833777 43.249730169 43.752630197 44.255537281 44.758442676 
45.261344527 45.764245633 46.267145054 46.77004211 47.272933438 47.775836051 48.278768155 48.781683859 49.284552904 
49.787436732 50.290366704 50.793287381 51.296176109 51.79907117 52.301990354 52.804907062 53.307813268 53.810717362 
54.313611398 54.816507552 55.31941514 55.822319699 56.325205479 56.828095339 57.331014747 57.833933964 58.33685153 
58.839767284 59.342663919 59.845560497 60.348456317 60.851352041 61.354246148 61.857140568 62.36005519 62.862969407 
63.365879035 63.868788663 
ParallelTransportNormals 3 128 double
0.087212889086 0 0.99618969678 0.16754984924 0.01088249036 0.98208850356 0.24788680939 0.021764980721 0.96798731033 
0.29995519227 0.022691864692 0.95235238708 0.34957634833 0.02275688615 0.93658468794 0.38042498522 0.019721257977 0.92398515452 
0.41095223567 0.016632546532 0.91143986025 0.41949864786 0.015270456601 0.90759091646 0.42677540906 0.014008099296 0.90424428881 
0.41963952532 0.015474588076 0.90751203748 0.41144008103 0.017142448158 0.91126788459 0.39137384798 0.021053877545 0.91969235107 
0.37018515141 0.025177523124 0.92855841595 0.33830718733 0.029962363987 0.93988787889 0.30518930628 0.03482390115 0.95150308724 
0.26580328165 0.037499659514 0.96239261385 0.2255521783 0.039873754283 0.97318198771 0.19383881775 0.038413629856 0.97979342198 
0.16349730364 0.036337422217 0.98573354397 0.16267297734 0.036917784048 0.98597760451 0.16727564209 0.037986579222 0.98517439473 
0.21083922519 0.056361796425 0.97421795181 0.26249962014 0.078333613739 0.96115147602 0.33105000492 0.11913356719 0.93166560077 
0.40352743373 0.16431119763 0.89836209712 0.45855371851 0.20484113288 0.86163344459 0.50909330684 0.24417614374 0.82402418485 
0.53303161478 0.26374652037 0.803511195 0.54943462431 0.27771820344 0.78784103577 0.54197561341 0.27125767682 0.79505573969 
0.52705998938 0.25841231438 0.80942170606 0.4844545844 0.22164705721 0.84272503283 0.43234612126 0.17667255666 0.88252761062 
0.3453196513 0.097551619772 0.92322348523 0.24519462898 0.0056215644486 0.96425445614 0.12962813182 -0.11599878664 0.9692024326 
0.0077865792528 -0.2496845818 0.95948712129 -0.083071699359 -0.37492554077 0.91078982992 -0.16049459366 -0.49650453621 0.84518864764 
-0.20069296637 -0.58758307383 0.77733283107 -0.22382849001 -0.66468091579 0.70844354292 -0.22981700386 -0.71804729525 0.65422697435 
-0.22743331303 -0.759826543 0.60717451269 -0.22134877906 -0.78739936072 0.57447428601 -0.21332833612 -0.80754080286 0.54928170537 
-0.20762091548 -0.8188638821 0.5350182736 -0.20321364104 -0.82523017339 0.52689809927 -0.20429277369 -0.8246173975 0.5274508633 
-0.20868689106 -0.81978774509 0.53324397093 -0.22290001749 -0.8056845172 0.5478378632 -0.24349023656 -0.78555843614 0.56814754803 
-0.28450386487 -0.7448954598 0.59826760358 -0.33974545814 -0.68992545846 0.63522205241 -0.45635687697 -0.5509710485 0.65777196164 
-0.61902156076 -0.34899289378 0.66951238798 -0.76234591014 -0.097231970299 0.51753557339 -0.89037135937 0.19390891387 0.23605253263 
-0.92645614123 0.33468255972 0.0148124188 -0.89989391582 0.37299819929 -0.165379058 -0.8792124338 0.38710456746 -0.27308091245 
-0.86295329073 0.38300548147 -0.32627032513 -0.85260165442 0.3792375443 -0.35914723673 -0.84695546079 0.37573337352 -0.37584485085 
-0.84613459484 0.37567432623 -0.37791981894 -0.84943293582 0.37855625566 -0.36751196548 -0.85661829662 0.38630390976 -0.33947749534 
-0.86736122491 0.39850488402 -0.29531038865 -0.87818327635 0.41359176952 -0.22333725687 -0.88908299775 0.4315115626 -0.12406879498 
-0.88945761495 0.43782723108 0.00058153331229 -0.87877294792 0.43194983146 0.15190193251 -0.85991542182 0.40934733072 0.28576711275 
-0.83191436305 0.36803332314 0.40010395372 -0.8105516333 0.33284604152 0.48002017832 -0.79700319391 0.30487081815 0.51941827105 
-0.78910680056 0.28823930374 0.5424203741 -0.78829589943 0.28582843815 0.54486821119 -0.78890994937 0.28962610304 0.54181124614 
-0.79143715161 0.30175939759 0.53136348356 -0.7935885925 0.31545279781 0.52003172508 -0.79519844512 0.33139479263 0.50742585525 
-0.79628330951 0.34549148293 0.49642897496 -0.79655567075 0.35673226966 0.48792226308 -0.79672724845 0.36352770647 0.48277628208 
-0.79673084927 0.36291403642 0.48323166305 -0.79650058957 0.35558876382 0.48866895859 -0.79585024491 0.33620740155 0.50305529546 
-0.79274318998 0.30817020057 0.52415919323 -0.78486901195 0.26333677855 0.55829818113 -0.76945511173 0.2114702784 0.5988819459 
-0.73823266533 0.14485751343 0.65297848341 -0.69850122419 0.080247079472 0.70735988263 -0.63953535642 0.020162878093 0.7623852065 
-0.58120072915 -0.031490477332 0.81147595219 -0.52439611326 -0.062709006512 0.84618236744 -0.4744995822 -0.08813116467 0.87546223674 
-0.44265562021 -0.09840594252 0.89056117201 -0.41718666811 -0.10639724567 0.90255457533 -0.40985479994 -0.10789199857 0.90571265223 
-0.40711944643 -0.10865022986 0.90685076394 -0.41873104207 -0.10710958059 0.90168402517 -0.43336245561 -0.10547729113 0.89484831284 
-0.45837474862 -0.10352998076 0.88227536273 -0.48471286533 -0.10184708851 0.86843460583 -0.51610189991 -0.10117153544 0.84976395491 
-0.54729591716 -0.10088001425 0.83054618648 -0.57766236794 -0.10221815291 0.80900669567 -0.60683733051 -0.10379037489 0.78782994481 
-0.63033691897 -0.10647759775 0.76838102039 -0.65228972282 -0.10910905546 0.75000806482 -0.66588874164 -0.11143933998 0.73744613969 
-0.67805604136 -0.1135331633 0.72618498406 -0.68134679812 -0.11416094629 0.72298849443 -0.68348278054 -0.11459300679 0.72090387409 
-0.67725586467 -0.11360764117 0.72687143289 -0.67021905495 -0.11260768493 0.73352252537 -0.6561998329 -0.1114819372 0.74606662988 
-0.64188141959 -0.11048507905 0.75874693921 -0.62440526588 -0.11084855425 0.77286478893 -0.60703955527 -0.1113245947 0.78680217981 
-0.59116291797 -0.11331832066 0.79830649484 -0.57562569455 -0.11531990935 0.80953114772 -0.56584811314 -0.11745492369 0.81601010842 
-0.55614831383 -0.11957898653 0.82243478103 -0.55146826025 -0.12099628288 0.82535591804 -0.54716808616 -0.12229853743 0.82803994664 
-0.54716808616 -0.12229853743 0.82803994664 -0.54716808616 -0.12229853743 0.82803994664 
FrenetTangent 3 128 double
-0.9668783858 -0.044710326406 0.25129101414 -0.9668783858 -0.044710326406 0.25129101414 -0.96497369678 -0.033948746458 0.26014082175 
-0.96181101005 -0.01775926708 0.27313767476 -0.9574303394 0.0022745987202 0.28865545447 -0.95208442659 0.024258231896 0.30487174818 
-0.94627843098 0.046197203593 0.3200358565 -0.94071148972 0.066195613221 0.33268608914 -0.93614299601 0.082598296519 0.341780357 
-0.93323426669 0.094057707462 0.34673758255 -0.93241434053 0.0995358806 0.34741345115 -0.93379360357 0.098272604329 0.3440523233 
-0.93713144396 0.089750945266 0.33723793464 -0.94185110378 0.073682918203 0.32785259779 -0.94709128562 0.050022770172 0.3170422987 
-0.95178792068 0.019001509206 0.30616775907 -0.95477586145 -0.018831170317 0.29672957625 -0.95490343464 -0.06257713895 0.29024736379 
-0.95114704415 -0.11098791708 0.28809891124 -0.94271841148 -0.16250246589 0.29133304866 -0.9291633627 -0.21533211887 0.30047882456 
-0.91045177833 -0.26759540754 0.31538905688 -0.88705242679 -0.31750194918 0.33515743225 -0.85996605261 -0.36357678084 0.35814845077 
-0.83068452938 -0.40488199733 0.38214366525 -0.80104392173 -0.44118061773 0.40458410498 -0.77297188731 -0.47298994022 0.42284155175 
-0.74819061394 -0.50148401144 0.43442443703 -0.7279286336 -0.52827780743 0.4370840452 -0.71268969688 -0.55515434128 0.42880887737 
-0.70210575723 -0.58376979436 0.40775033153 -0.69484279027 -0.61537249968 0.37216956276 -0.68854574422 -0.65053712303 0.32047809547 
-0.67984295633 -0.68889517424 0.25146966744 -0.66449013247 -0.72889697223 0.16480918581 -0.63780859633 -0.76771525367 0.061753410746 
-0.5955551221 -0.80149038879 -0.054104096114 -0.53513644748 -0.82611299741 -0.17653979181 -0.45672792996 -0.83842789729 -0.29738570751 
-0.36355235089 -0.8373587376 -0.40824016549 -0.26101028551 -0.82426523316 -0.50245443203 -0.15511202234 -0.80235547044 -0.57633840717 
-0.0510566457 -0.77562823169 -0.62912166164 0.047455996284 -0.74793892636 -0.6620689472 0.13826758683 -0.72250415924 -0.67739930197 
0.22044290197 -0.70178704348 -0.67742148812 0.29387006843 -0.68757685544 -0.66398678507 0.35892306546 -0.68112494211 -0.63815597335 
0.41617032548 -0.6832481142 -0.59997856181 0.4661152711 -0.69436191203 -0.54826826388 0.50888207837 -0.71439328486 -0.48029289487 
0.54373057447 -0.74242333216 -0.39136256622 0.56821752931 -0.77576377746 -0.27444380291 0.57679159137 -0.80794233563 -0.12058458617 
0.55923315129 -0.82538317391 0.077465467977 0.50193144256 -0.80568779429 0.31453458491 0.39822818659 -0.72740481263 0.55883499351 
0.26350932653 -0.59371799265 0.76030374196 0.12929145529 -0.43715583365 0.89004409818 0.018584368901 -0.29098704461 0.95654647619 
-0.062541155423 -0.17052117981 0.98336724122 -0.11716200477 -0.077680930116 0.99007006708 -0.15032189203 -0.0096050354909 0.98859044709 
-0.16633099722 0.036988584169 0.98537599119 -0.168349499 0.064501368354 0.98361477199 -0.15863623778 0.074355307255 0.98453330687 
-0.13891271985 0.067253431929 0.98801833594 -0.1107315193 0.043580218039 0.99289440286 -0.07578620384 0.0038585449296 0.99711662454 
-0.036178112728 -0.050754037566 0.99805569576 0.0054606976761 -0.11802383704 0.99299574756 0.046081371618 -0.19447614132 0.97982423814 
0.082583365043 -0.27564628983 0.95770512723 0.11236793833 -0.35679338168 0.92740063038 0.13379834431 -0.43374982732 0.89104382067 
0.14640230849 -0.50352338274 0.85148726773 0.15077201458 -0.56447367128 0.81156470725 0.14829142196 -0.61610494548 0.77357892314 
0.14084594645 -0.65870716899 0.73909896826 0.13058521066 -0.69301297397 0.70899966197 0.11977006532 -0.71995096416 0.68361227363 
0.11066727044 -0.74049015275 0.66289296945 0.10546486308 -0.75553459539 0.64656371521 0.10618779869 -0.76583546966 0.63420831343 
0.11463637521 -0.77191098908 0.62530946452 0.13231663209 -0.77396641068 0.61924817643 0.16034086009 -0.77182934794 0.61528064023 
0.19930896912 -0.76492969854 0.61250182948 0.24915168237 -0.75233656754 0.60984680726 0.30893591141 -0.73290729442 0.6061398357 
0.37670537762 -0.70557511921 0.60021396987 0.44948743438 -0.66970533313 0.59114787753 0.52354596682 -0.62546122425 0.57853079225 
0.59491861302 -0.57402339488 0.56264463564 0.66010225322 -0.51747341813 0.54450553424 0.71661581655 -0.4583884408 0.52568223178 
0.76323376325 -0.39932274977 0.50795232468 0.7998524489 -0.34237085113 0.49296882283 0.82713440646 -0.28895226002 0.48203243156 
0.84613220797 -0.2397974683 0.4759805257 0.85799550498 -0.19507441753 0.47517332107 0.86379071999 -0.15459151877 0.47954880292 
0.86445303895 -0.1179562862 0.48867909511 0.86079276893 -0.084737893695 0.50185186891 0.85354979768 -0.054578055018 0.51814474695 
0.84345492996 -0.02725239365 0.53650823681 0.83127722103 -0.0027189284153 0.55585140931 0.81785279577 0.018901145039 0.57511698912 
0.80406164152 0.037341167759 0.59337215458 0.79079980122 0.052238468953 0.60984163252 0.77891515596 0.063202156015 0.62393642888 
0.76913794243 0.069853455574 0.63525374479 0.76201928676 0.071875591513 0.64355303275 0.75787915414 0.069069892741 0.64872840052 
0.75679027903 0.061379454886 0.65076957218 0.75857399935 0.048920233292 0.64974787285 0.76281766468 0.032010062792 0.64582084693 
0.76893000138 0.011193221523 0.63923498399 0.7762193809 -0.012757923748 0.63033380688 0.78396787295 -0.038867582121 0.61958347722 
0.79151600401 -0.065985242351 0.60757580859 0.79834406761 -0.09284775423 0.59500087751 0.80410948214 -0.11816213893 0.58261964407 
0.80865219083 -0.14068269198 0.57121800956 0.81197242394 -0.15928089843 0.56154285513 0.81417089927 -0.17303522548 0.55424232744 
0.81538095733 -0.18127853855 0.54981086373 0.81538095733 -0.18127853855 0.54981086373 
FrenetNormal 3 128 double
0.12950657194 0.76245150906 0.63395247783 0.12950657194 0.76245150906 0.63395247783 0.14174892987 0.7669203706 0.62589167277 
0.15974899274 0.77388449536 0.61284830681 0.18112468883 0.78336026341 0.59459275542 0.20298962294 0.79574531754 0.57060021258 
0.22213953558 0.81209116768 0.53959425693 0.23487400431 0.83473646347 0.49804541826 0.2355157043 0.86905580087 0.43505674114 
0.20561621439 0.93126053746 0.30079192767 -0.11009317782 0.83739583988 -0.53539490055 -0.32485752343 -0.63591200456 -0.70005964884 
-0.27139637805 -0.79493438309 -0.54260789947 -0.22499752767 -0.86295188219 -0.45242696821 -0.17293038537 -0.9116773173 -0.37274596032 
-0.11222434715 -0.95045885406 -0.28988560269 -0.042520043577 -0.97908671471 -0.19895037314 0.034965234451 -0.99443649078 -0.099365477824 
0.11783280602 -0.99301237211 0.0064698277522 0.20266552759 -0.97267704028 0.11325219308 0.28572258203 -0.934079874 0.21414339847 
0.36365452586 -0.88117312865 0.30214119741 0.43413519697 -0.82062613316 0.37161724976 0.49595031154 -0.76088952352 0.41842612428 
0.54868014445 -0.71174727689 0.43859538635 0.59188641927 -0.6847365752 0.425213228 0.62254826835 -0.69390361577 0.36184447709 
0.62595305877 -0.75061343088 0.21157089967 0.55667103087 -0.82751279505 -0.073074875355 0.38127430033 -0.81967733209 -0.42750319199 
0.20417965304 -0.71362633708 -0.67011052843 0.11241994365 -0.60408532807 -0.78895036135 0.094797425826 -0.51887020417 -0.84958057845 
0.12630465735 -0.44776686921 -0.88518470636 0.19097317791 -0.3788480128 -0.90554040689 0.27843174866 -0.30458703623 -0.91088006823 
0.38016118358 -0.22186923006 -0.89791509579 0.48789203052 -0.13163929639 -0.86292088988 0.59334042611 -0.038025062358 -0.80405300409 
0.6898369997 0.052523225402 -0.72205694003 0.77286045878 0.13344203507 -0.62038692325 0.84092933722 0.1989240316 -0.50325647482 
0.89459687924 0.24450764149 -0.37404870927 0.93501928626 0.26644344563 -0.23398039364 0.96203086677 0.26049616355 -0.081476132426 
0.9713106338 0.22146886362 0.086644071438 0.95156785598 0.14480105697 0.27120337269 0.88579718857 0.033086450629 0.46289159369 
0.76459536427 -0.094169060965 0.63759400631 0.60318252285 -0.20394387893 0.77108867089 0.43243193685 -0.2702879819 0.86020173613 
0.2729395774 -0.28454371282 0.91898795562 0.12671847768 -0.24704639786 0.96068231207 -0.014304903636 -0.15758112422 0.98740243013 
-0.15864676655 -0.014835250631 0.98722394562 -0.30537541564 0.1751569201 0.93598392554 -0.43686365609 0.38529783269 0.81283191751 
-0.52717240726 0.57142779671 0.6289352321 -0.56586048029 0.70455840642 0.42825152515 -0.56236459623 0.7879893319 0.25063693606 
-0.53008818986 0.84050849355 0.11203563377 -0.4745768859 0.88011960539 0.012894168416 -0.38747145774 0.92052619471 -0.049973936133 
-0.22517793147 0.97146701672 -0.074476402983 0.22267105282 0.97455228951 -0.025796070521 0.98460682334 0.086019099659 0.15215162811 
0.83409962319 -0.52987229474 0.15334004651 0.70448491732 -0.70124492173 0.10934606087 0.62203641841 -0.78137086321 0.05030177228 
0.5568044375 -0.83035110118 -0.022042394395 0.49588791102 -0.86199319835 -0.10518034845 0.43242562279 -0.88031727242 -0.19506301708 
0.36294908091 -0.88667155963 -0.28649870858 0.2855979818 -0.88233400893 -0.37405947318 0.19988155896 -0.86883812384 -0.45295438728 
0.1066914967 -0.84770361182 -0.51963016755 0.0081760721403 -0.82020923589 -0.57200521083 -0.091069140838 -0.78741116586 -0.60966389713 
-0.18398691724 -0.75095127915 -0.63420894871 -0.26019721203 -0.71401168207 -0.64998825276 -0.3044544073 -0.68202730597 -0.66494080021 
-0.28871069758 -0.66217962509 -0.69149423513 -0.14214632833 -0.65496686016 -0.74216765857 0.30014272108 -0.58337732372 -0.75470871543 
0.83588401734 -0.26518571694 -0.48059800779 0.97789107299 -0.00013276139499 -0.20911487691 0.98703218742 0.13019485897 -0.093897602132 
0.97609982376 0.2102267913 -0.055080216765 0.95979988069 0.27586275735 -0.051806641694 0.9381769027 0.33947144178 -0.067699626644 
0.90944485014 0.40486148391 -0.094853800114 0.87199375113 0.47258022444 -0.12765120237 0.82524509857 0.54109489829 -0.16182347893 
0.76976270878 0.60837993916 -0.19323359385 0.70692822677 0.6730567019 -0.21736411438 0.63847271998 0.7345086184 -0.22989057253 
0.56557646804 0.79301137542 -0.22639835964 0.48795666175 0.84918332176 -0.20195539679 0.40335699451 0.90247270854 -0.15114941389 
0.30800501053 0.94884244897 -0.069504823757 0.19883878193 0.97909206229 0.042917040465 0.077677331781 0.98124763517 0.17640666258 
-0.045537631462 0.94971267422 0.30979373872 -0.15879929315 0.89210186302 0.42300951583 -0.25410154494 0.8245961002 0.50544403883 
-0.33164464841 0.75925340882 0.55995186255 -0.39453766908 0.70152760371 0.59346360369 -0.44683288961 0.65060908557 0.6140424957 
-0.49236192896 0.60124861718 0.6293487358 -0.53402625532 0.54574352178 0.64573986021 -0.57566290745 0.46677175403 0.67136900929 
-0.62043167666 0.32000481122 0.71600380962 -0.64245094575 -0.040610935013 0.76524998155 -0.37835150584 -0.76354576283 0.52330488828 
0.04080787644 -0.99807596555 0.046680662098 0.20412457706 -0.96482453914 -0.16567065433 0.26005137726 -0.92962774126 -0.26108531913 
0.27567396655 -0.90792762361 -0.31570760912 0.27184229396 -0.89530899896 -0.3528789645 0.25707531279 -0.88811911287 -0.3809943896 
0.2361332261 -0.88392999789 -0.4036196952 0.21250785815 -0.88104239079 -0.42261651158 0.18828185493 -0.87897424345 -0.43812580666 
0.16579280617 -0.8771285721 -0.45073075491 0.14683317973 -0.87537128999 -0.46061385345 0.13244992684 -0.87404408122 -0.46744407255 
0.12359117665 -0.87330954962 -0.47122781284 0.12359117665 -0.87330954962 -0.47122781284 
FrenetBinormal 3 128 double
-0.21994143515 0.64549878624 -0.73140760323 -0.21994143515 0.64549878624 -0.73140760323 -0.22075553314 0.64084368435 -0.73524578667 
-0.22226074836 0.6330777174 -0.74149360312 -0.22476875293 0.621563773 -0.75042486886 -0.22875851378 0.60514537741 -0.7625408937 
-0.23497054666 0.58169902334 -0.77872658131 -0.24473678762 0.54665636129 -0.80079381082 -0.26109125617 0.48776996258 -0.8330136971 
-0.29461122834 0.35200420315 -0.88842403451 -0.34421358161 -0.53745773398 -0.76984166841 0.14999031771 -0.76547920788 0.62573515715 
0.21938245764 -0.60002007833 0.76931608775 0.24958487705 -0.49988486334 0.82935065717 0.27039448684 -0.40785069766 0.87209209944 
0.28549159349 -0.3102690919 0.90676768836 0.29427045433 -0.20256996841 0.93400765929 0.29485057722 -0.084735868936 0.95177884492 
0.28536771055 0.040101260665 0.95757880024 0.26496920686 0.16580809357 0.94989420228 0.23455927085 0.28482778582 0.92943804575 
0.19706076514 0.38977764843 0.89957792305 0.15704974648 0.4751476211 0.86577717416 0.12038138077 0.53745609815 0.83465517774 
0.094410337079 0.57400904355 0.81338816452 0.089437699832 0.58008230892 0.80963288763 0.12226248407 0.5429348842 0.83082705572 