# vtk DataFile Version 4.2
vtk output
ASCII
DATASET POLYDATA
POINTS 128 float
0 0 0 -0.314105 -0.00480629 0.121914 -0.934025 -0.0153198 0.348441 
-1.4623 -0.02821 0.510257 -1.90886 -0.0520997 0.624819 -2.37917 -0.0980778 0.752356 
-2.86633 -0.172398 0.896824 -3.33745 -0.279932 1.04863 -3.78777 -0.425507 1.20975 
-4.21952 -0.6134 1.38382 -4.62813 -0.845181 1.56565 -5.0079 -1.12142 1.74637 
-5.35853 -1.44185 1.91207 -5.6816 -1.80502 2.0456 -5.97905 -2.20426 2.12069 
-6.25254 -2.62884 2.11048 -6.50129 -3.05479 2.00317 -6.724 -3.45582 1.79591 
-6.92133 -3.82043 1.50724 -7.09441 -4.14409 1.16223 -7.24293 -4.43133 0.777002 
-7.36559 -4.68986 0.363514 -7.45862 -4.92549 -0.070803 -7.51716 -5.14321 -0.520326 
-7.53599 -5.34793 -0.979171 -7.51034 -5.5446 -1.44125 -7.44016 -5.73879 -1.8998 
-7.32814 -5.9365 -2.34803 -7.18178 -6.14515 -2.78143 -7.01081 -6.37285 -3.19634 
-6.82453 -6.62802 -3.58728 -6.63191 -6.91962 -3.94746 -6.44101 -7.25962 -4.26613 
-6.26086 -7.66008 -4.52692 -6.11417 -8.11915 -4.67993 -6.02953 -8.62144 -4.66252 
-6.02012 -9.09527 -4.46493 -6.08779 -9.44608 -4.11057 -6.20977 -9.65181 -3.65676 
-6.35236 -9.72858 -3.1737 -6.49735 -9.69597 -2.69262 -6.63481 -9.5749 -2.22409 
-6.75708 -9.38379 -1.77411 -6.85788 -9.13956 -1.34576 -6.9333 -8.85765 -0.936315 
-6.98089 -8.5526 -0.539662 -6.99986 -8.23817 -0.148075 -6.99065 -7.92789 0.24718 
-6.95607 -7.63709 0.655694 -6.90089 -7.38283 1.08721 -6.83597 -7.18855 1.54721 
-6.7764 -7.08099 2.03712 -6.74043 -7.07688 2.54154 -6.7474 -7.18475 3.03414 
-6.80333 -7.39497 3.49125 -6.90472 -7.68585 3.89186 -7.04247 -8.03945 4.22437 
-7.20372 -8.44075 4.48389 -7.37659 -8.87702 4.66793 -7.55016 -9.3372 4.77601 
-7.71611 -9.81127 4.81318 -7.86828 -10.2902 4.78876 -8.00313 -10.7691 4.71506 
-8.11925 -11.2461 4.60661 -8.21617 -11.7217 4.47687 -8.29414 -12.1984 4.33827 
-8.35329 -12.6782 4.2015 -8.39368 -13.163 4.07563 -8.41492 -13.6534 3.96757 
-8.41623 -14.1487 3.88222 -8.39592 -14.6474 3.82272 -8.35143 -15.1471 3.79053 
-8.27872 -15.6446 3.78616 -8.17222 -16.1357 3.80929 -8.02407 -16.6138 3.85954 
-7.82423 -17.0698 3.93649 -7.5663 -17.4906 4.03934 -7.24832 -17.8592 4.16678 
-6.87741 -18.1657 4.3174 -6.47066 -18.408 4.48964 -6.04346 -18.5906 4.68282 
-5.60849 -18.7248 4.89726 -5.1748 -18.8202 5.13301 -4.74719 -18.8833 5.38964 
-4.32873 -18.9186 5.66586 -3.92067 -18.9275 5.95921 -3.52308 -18.9099 6.26615 
-3.13459 -18.864 6.58173 -2.75335 -18.7885 6.90044 -2.37694 -18.6824 7.21604 
-2.00294 -18.5476 7.52346 -1.62894 -18.3893 7.81939 -1.25266 -18.2147 8.10284 
-0.871985 -18.0336 8.37623 -0.485302 -17.8561 8.64331 -0.0918097 -17.6925 8.90955 
0.30796 -17.554 9.1809 0.711247 -17.4528 9.4639 1.11251 -17.4015 9.76371 
1.50148 -17.4126 10.0828 1.86719 -17.4946 10.42 2.19825 -17.6475 10.7674 
2.48716 -17.867 11.1166 2.73429 -18.1416 11.4591 2.9425 -18.4603 11.7879 
3.11787 -18.8135 12.1001 3.26648 -19.1935 12.3937 3.39346 -19.5947 12.6687 
3.50303 -20.0123 12.9259 3.59754 -20.4432 13.1665 3.67848 -20.8848 13.3922 
3.74581 -21.3352 13.6046 3.79903 -21.793 13.8047 3.83693 -22.2573 13.9929 
3.85821 -22.7274 14.1692 3.86159 -23.2027 14.3321 3.84564 -23.6826 14.48 
3.8085 -24.1668 14.6101 3.74862 -24.6543 14.7195 3.66564 -25.1415 14.8064 
3.55782 -25.6262 14.8683 3.41828 -26.1114 14.901 3.24547 -26.5942 14.9031 
3.05934 -27.0476 14.8837 2.86266 -27.4654 14.8444 2.58134 -27.9319 14.7531 
2.20659 -28.455 14.6069 2.00853 -28.7157 14.5257 
LINES 1 129
128 0 1 2 3 4 5 6 7 8 9 10 11 12 13 14 15 16 17 18 19 20 21 22 23 24 25 26 27 28 29 30 31 32 33 34 35 36 37 38 39 40 41 42 43 44 45 46 47 48 49 50 51 52 53 54 55 56 57 58 59 60 61 62 63 64 65 66 67 68 69 70 71 72 73 74 75 76 77 78 79 80 81 82 83 84 85 86 87 88 89 90 91 92 93 94 95 96 97 98 99 100 101 102 103 104 105 106 107 108 109 110 111 112 113 114 115 116 117 118 119 120 121 122 123 124 125 126 127 

CELL_DATA 1
FIELD FieldData 2
Length 1 1 double
55.950191765 
Tortuosity 1 1 double
0.73525752796 
POINT_DATA 128
SCALARS MaximumInscribedSphereRadius float
LOOKUP_TABLE default
0.93 0.949187 0.968374 0.871335 0.767437 0.898744 1.04047 1.33954 1.6482 
1.51946 1.35497 1.19924 1.04439 0.924577 0.809092 0.871378 0.959081 1.0652 
1.17419 1.17372 1.15426 1.18251 1.22016 1.23229 1.23871 1.24 1.24 
1.24 1.24 1.26168 1.2901 1.40722 1.55479 1.75343 1.97107 1.96232 
1.86696 1.74561 1.61547 1.57947 1.5749 1.64308 1.73694 1.79771 1.84584 
1.86 1.86 1.86311 1.86763 2.03086 2.27283 2.24877 2.08353 2.05303 
2.0966 2.13065 2.15927 2.17 2.17 2.21021 2.276 2.32866 2.37241 
2.34649 2.26968 2.28056 2.36071 2.37919 2.34503 2.26921 2.15499 2.04243 
1.93151 1.98659 2.21893 2.24659 2.04016 1.84613 1.66711 1.56309 1.55512 
1.56745 1.60763 1.72005 1.93932 2.05382 2.00083 1.92346 1.80384 1.7079 
1.65651 1.65904 1.77204 1.91749 2.13564 2.31932 2.41816 2.48897 2.48411 
2.4749 2.45296 2.40818 2.29115 2.15285 1.94124 1.76697 1.73531 1.72755 
1.82234 1.90843 1.952 2.01312 2.17317 2.31454 2.33227 2.33878 2.25637 
2.18247 2.19149 2.20734 2.3083 2.41025 2.52878 2.64193 2.63012 2.60688 
2.38844 2.17 
TEXTURE_COORDINATES TCoords 2 float
0 0 0.00787402 0 0.015748 0 0.023622 0 0.0314961 
0 0.0393701 0 0.0472441 0 0.0551181 0 0.0629921 0 
0.0708661 0 0.0787402 0 0.0866142 0 0.0944882 0 0.102362 
0 0.110236 0 0.11811 0 0.125984 0 0.133858 0 
0.141732 0 0.149606 0 0.15748 0 0.165354 0 0.173228 
0 0.181102 0 0.188976 0 0.19685 0 0.204724 0 
0.212598 0 0.220472 0 0.228346 0 0.23622 0 0.244094 
0 0.251969 0 0.259843 0 0.267717 0 0.275591 0 
0.283465 0 0.291339 0 0.299213 0 0.307087 0 0.314961 
0 0.322835 0 0.330709 0 0.338583 0 0.346457 0 
0.354331 0 0.362205 0 0.370079 0 0.377953 0 0.385827 
0 0.393701 0 0.401575 0 0.409449 0 0.417323 0 
0.425197 0 0.433071 0 0.440945 0 0.448819 0 0.456693 
0 0.464567 0 0.472441 0 0.480315 0 0.488189 0 
0.496063 0 0.503937 0 0.511811 0 0.519685 0 0.527559 
0 0.535433 0 0.543307 0 0.551181 0 0.559055 0 
0.566929 0 0.574803 0 0.582677 0 0.590551 0 0.598425 
0 0.606299 0 0.614173 0 0.622047 0 0.629921 0 
0.637795 0 0.645669 0 0.653543 0 0.661417 0 0.669291 
0 0.677165 0 0.685039 0 0.692913 0 0.700787 0 
0.708661 0 0.716535 0 0.724409 0 0.732283 0 0.740157 
0 0.748031 0 0.755906 0 0.76378 0 0.771654 0 
0.779528 0 0.787402 0 0.795276 0 0.80315 0 0.811024 
0 0.818898 0 0.826772 0 0.834646 0 0.84252 0 
0.850394 0 0.858268 0 0.866142 0 0.874016 0 0.88189 
0 0.889764 0 0.897638 0 0.905512 0 0.913386 0 
0.92126 0 0.929134 0 0.937008 0 0.944882 0 0.952756 
0 0.96063 0 0.968504 0 0.976378 0 0.984252 0 
0.992126 0 1 0 
FIELD FieldData 7
Curvature 1 128 double
0 0.021551141937 0.040956533375 0.060346352259 0.079621917392 0.098621127163 0.11719500743 0.13534108007 0.15335317583 
0.17188393339 0.19179942781 0.21375824481 0.23763630842 0.26198181839 0.28391662342 0.29969803369 0.30590728492 0.30083931799 
0.28517576216 0.26156642966 0.23347986546 0.20412830805 0.17604977107 0.15123291773 0.1317097209 0.12017726351 0.11995965453 
0.13377521594 0.16304458066 0.20968011591 0.27863113144 0.37982450263 0.52890499984 0.74248724712 1.0141140917 1.2618683459 
1.3304141808 1.1630381052 0.88652863208 0.63342302599 0.44473248064 0.31147082979 0.21555676514 0.14301440411 0.085521811242 
0.043947300106 0.048671150137 0.091882815997 0.14538894054 0.20532922548 0.27032971286 0.33687366817 0.39794169862 0.44380397301 
0.46547874514 0.45936914242 0.4292101306 0.38344576379 0.33104611192 0.27857141417 0.22981360828 0.18653880388 0.14961795605 
0.11990203625 0.098882535602 0.088582608109 0.089719895939 0.10010991381 0.11634649515 0.13591321424 0.15739375729 0.17993402535 
0.20266782075 0.22438318832 0.24335541981 0.25759718472 0.26528248481 0.26538687865 0.25819660624 0.24505858341 0.22801252829 
0.20903827683 0.18966273818 0.17069981995 0.15241730393 0.1346255726 0.11695297139 0.098936262738 0.080086290421 0.060054225396 
0.038610373895 0.016403598086 0.014631199648 0.040440236835 0.06965450723 0.10057559709 0.13226554685 0.16316579599 0.19131495189 
0.21416042236 0.22938426924 0.23563149753 0.2329533167 0.22285999487 0.2078010603 0.1903372026 0.1726266604 0.15622176555 
0.14209183446 0.13069431957 0.12218968914 0.11654350693 0.11359696651 0.11305709485 0.1145108062 0.11745538092 0.12120573905 
0.12491153157 0.12759220166 0.12813977249 0.12550830714 0.11879989869 0.10754444697 0.091702395916 0.071760062915 0.04859787131 
0.023316948372 0 
Torsion 1 128 double
0 0 -0.019897043331 -0.035578760081 -0.058274826948 -0.08808250251 -0.12410201727 -0.16423324858 -0.20457480564 
-0.23939860107 -0.26217861779 -0.26788066632 -0.25546197603 -0.22800668884 -0.1903218227 -0.14673356533 -0.099803075484 -0.050084836852 
0.0030748064925 0.06103827567 0.12600996406 0.20167354223 0.29371774006 0.40933822684 0.54959208891 0.68477567149 0.73967217867 
0.67086709195 0.53523505594 0.40242716133 0.29517771982 0.2098175069 0.13797076357 0.074104182306 0.01763735692 -0.029282603506 
-0.069034392133 -0.10691110942 -0.1427604887 -0.17279760904 -0.19784585801 -0.22645888957 -0.27695919051 -0.39750063569 -0.78614970955 
-2.4615835263 -1.9802450482 -0.63824642723 -0.32116663631 -0.20894353392 -0.15262734521 -0.11547219057 -0.085372947556 -0.057528381752 
-0.029932105949 -0.00167103803 0.027538547413 0.057829114317 0.09004683993 0.12637637788 0.17137770844 0.23316230179 0.3236621075 
0.45360337105 0.60625074029 0.68939741928 0.60857440116 0.43278735557 0.27222234972 0.15902812547 0.08591387663 0.041438266426 
0.017177262598 0.0073145404653 0.0073917739336 0.013815440699 0.023983963914 0.035462918478 0.0460002665 0.053710018682 0.056689994073 
0.053401083011 0.043353561583 0.027465138505 0.0078695658897 -0.012089875113 -0.028392078558 -0.036350266 -0.028802545562 0.0128239536 
0.17780789609 1.5341513741 2.1277647522 0.23460196049 0.043254033842 -0.0026163376457 -0.015703286182 -0.017144414584 -0.013540693114 
-0.007673180815 -0.00048886555826 0.0071438833916 0.014559639791 0.02136084027 0.026910681219 0.030394992181 0.031265938198 0.029149842878 
0.023941659025 0.016268535365 0.0071899732979 -0.0015641781127 -0.0084278596084 -0.012980343777 -0.014951174706 -0.014990811061 -0.014268331064 
-0.013170601024 -0.012001683545 -0.010849117422 -0.009862965114 -0.0088654609447 -0.007583342573 -0.0063707300467 -0.0049147171092 -0.0031217334461 
0 0 
Abscissas 1 128 double
0 0.50235536009 1.0047107202 1.5070660194 2.0094213151 2.5117774762 3.0141336756 3.5164911557 4.018848714 
4.5212011505 5.0235531684 5.5259083208 6.0282637945 6.5306199637 7.0329762189 7.5353341465 8.0376923132 8.5400475098 
9.0424022431 9.5447574644 10.04711277 10.549467595 11.051822326 11.554178517 12.056535035 12.558890899 13.061246599 
13.563602766 14.065959064 14.568313873 15.070668218 15.573022824 16.075377518 16.577733466 17.08008988 17.582444701 
18.084798913 18.587152762 19.089506489 19.591863595 20.094221829 20.596577005 21.098931102 21.601285464 22.103639927 
22.605993879 23.108347619 23.610704631 24.113063134 24.615420584 25.117777512 25.620130936 26.122482502 26.624836378 
27.127191524 27.629548505 28.13190653 28.634261431 29.136614459 29.638967849 30.14132147 30.643683446 31.146051093 
31.648410676 32.150764371 32.653128453 33.155500741 33.65784776 34.160173206 34.662505178 35.164843165 35.667203289 
36.169585405 36.671944269 37.174278299 37.676638371 38.179028222 38.681392567 39.183726042 39.686072821 40.188436637 
40.690796502 41.19315095 41.695507019 42.197865484 42.70022185 43.202574859 43.704927674 44.207280153 44.709630369 
45.211976326 45.714331938 46.216707334 46.719076309 47.221430893 47.723785123 48.226138476 48.728493275 49.230851974 
49.733210371 50.23556788 50.737923433 51.240272794 51.742625369 52.244989026 52.747346018 53.24967756 53.752017564 
54.254393894 54.756769087 55.259138722 55.761504382 56.263847637 56.76619281 57.268550673 57.770908806 58.273269067 
58.77562727 59.277965398 59.780305682 60.282672892 60.785038791 61.287382528 61.789727285 62.292095764 62.794462504 
63.296799577 63.79913665 
ParallelTransportNormals 3 128 double
0.34857575248 0 0.93728061155 0.31064354106 -0.0010607167985 0.94964095787 0.27271132965 -0.002121433597 0.96200130419 
0.27250467668 -0.0020210649998 0.96215006673 0.27452445217 -0.0018521732666 0.96157814497 0.2969722599 0.002697358728 0.95455279303 
0.32032489972 0.0074409252669 0.94724159512 0.34862432948 0.01823927335 0.93651024252 0.37722563239 0.029407108725 0.92557017822 
0.38802648028 0.035967379945 0.92086759683 0.39737288926 0.042151176484 0.91667466746 0.3680713839 0.011714808789 0.92839416263 
0.33480803652 -0.022475533936 0.94174485869 0.25877726195 -0.13002668245 0.94650627043 0.17745672325 -0.24665159071 0.95020530149 
0.091277374846 -0.39264509953 0.89655206713 0.0044033649828 -0.5428374217 0.83469920959 -0.050533568331 -0.64367072917 0.75139115594 
-0.10048805917 -0.73680363078 0.66473591801 -0.12652354822 -0.78959472108 0.59453602518 -0.1484107104 -0.8353892393 0.52719002027 
-0.15803023025 -0.86328759295 0.47632195361 -0.16523048904 -0.88765670333 0.4287034465 -0.16594312822 -0.90140737946 0.39893383951 
-0.16520370241 -0.91278142783 0.37315918979 -0.16580964664 -0.91350706959 0.37146850245 -0.16675393562 -0.91155476236 0.37583464829 
-0.17838960569 -0.89483846319 0.40669140148 -0.19302059951 -0.87398584754 0.4449698287 -0.22460123058 -0.82552827768 0.50865707391 
-0.26145591133 -0.76848114937 0.58025052776 -0.3205550255 -0.64208082837 0.67112818763 -0.38729057195 -0.4918718111 0.76862604458 
-0.45382177104 -0.20296336481 0.80049990295 -0.52027690579 0.13757325489 0.80794650013 -0.51496447742 0.44400469201 0.63859424075 
-0.48219859779 0.73738977606 0.40161060891 -0.42670857358 0.85611127163 0.17121826736 -0.36352757556 0.91571797513 -0.056943255735 
-0.31610945676 0.90960905915 -0.2236995469 -0.27395435108 0.88155858269 -0.36995345795 -0.24910065253 0.84419360774 -0.46640102024 
-0.23035658195 0.80353941359 -0.54526051816 -0.22293336506 0.77984454082 -0.58423322593 -0.21983256036 0.76262490213 -0.60797676876 
-0.21879508234 0.77203711569 -0.5958325586 -0.21861773422 0.79255123213 -0.56872797902 -0.21180895909 0.83524512881 -0.49713462111 
-0.2019762158 0.88805313051 -0.40525412908 -0.18650281065 0.93240768162 -0.25876766725 -0.16823075145 0.97256799374 -0.085188069392 
-0.1633040093 0.96315915153 0.10291233457 -0.16545887595 0.92744674848 0.29871811323 -0.18637564589 0.85475957427 0.45751533506 
-0.2176044999 0.76174999766 0.59597158493 -0.25837700554 0.65256613221 0.69816324918 -0.30459032768 0.53416133739 0.77968054649 
-0.35180897843 0.40963247548 0.83137678223 -0.39963074743 0.28142965407 0.86518272205 -0.43917630011 0.16573489166 0.87674315705 
-0.47345709118 0.05799689916 0.87415252647 -0.4969584387 -0.024813984333 0.86508007269 -0.51314230089 -0.090703423446 0.85160751738 
-0.52238742059 -0.13308779296 0.84191131896 -0.52656501593 -0.15830586567 0.83497308146 -0.52819990887 -0.16696080618 0.83253338022 
-0.52782655666 -0.16253406245 0.83364665619 -0.52764066251 -0.15024541345 0.83589783172 -0.52761481033 -0.13124467738 0.83912048689 
-0.52848622599 -0.11277555446 0.84126611476 -0.53018475342 -0.0947964786 0.84241892655 -0.53145415074 -0.084000898944 0.8429054423 
-0.53229723404 -0.080341675043 0.84273003447 -0.52900185988 -0.086556387329 0.84404168085 -0.52128681283 -0.10331598701 0.84694142939 
-0.50845306094 -0.12218780378 0.85201241582 -0.48976547374 -0.14347518688 0.85956646573 -0.47649416395 -0.15697207131 0.86502226165 
-0.4697781007 -0.16104022166 0.86793856944 -0.47351410629 -0.16093559726 0.86579984604 -0.49063633113 -0.15548679855 0.857187021 
-0.51217408572 -0.15061538456 0.84515113801 -0.53976600125 -0.14653562644 0.82842187847 -0.56533415041 -0.14397502771 0.8118893841 
-0.58791008788 -0.14366056104 0.79564781413 -0.60448736926 -0.1438172441 0.78349252977 -0.6114732749 -0.14472725825 0.77787089228 
-0.61206747364 -0.14419514619 0.77747273689 -0.60158514457 -0.14116389714 0.78612663058 -0.58817146807 -0.13644317801 0.79691060105 
-0.56924228042 -0.12854361663 0.81170244244 -0.55210529105 -0.12121819245 0.82481063924 -0.53864042524 -0.11506914632 0.83446913347 
-0.53036124414 -0.11121490005 0.84043955782 -0.53370211886 -0.11250282958 0.83814577399 -0.54460398643 -0.11518874656 0.83033461871 
-0.57410821311 -0.12131414104 0.80894903908 -0.60987262895 -0.12457781924 0.78119387232 -0.66253027604 -0.12011910542 0.73625026191 
-0.71420520938 -0.11027087474 0.68930775624 -0.76299480432 -0.084598524543 0.63649630943 -0.80639873748 -0.057629749451 0.58745697763 
-0.83275613169 -0.026557568251 0.55035703381 -0.85545571432 0.0022770261519 0.5175303731 -0.86554307149 0.023396365562 0.49943809899 
-0.87422961336 0.042399096138 0.48358645635 -0.87756778217 0.053320523103 0.47628964108 -0.88058617569 0.063665933686 0.46955924751 
-0.88223160313 0.071538198261 0.46526080484 -0.88385331151 0.079939342973 0.46083222261 -0.88535913529 0.090924444784 0.45576781576 
-0.8867958052 0.10261824725 0.4505356151 -0.88784260423 0.11830751312 0.44435743811 -0.88872654923 0.13438998464 0.43818793513 
-0.88853266021 0.15307485081 0.43207584021 -0.88813511986 0.17199239134 0.42607039841 -0.88612335639 0.19275420333 0.42091033266 
-0.88385254061 0.21385445549 0.41588182519 -0.879054972 0.23825579663 0.41213651528 -0.87393545691 0.26300076703 0.40857509384 
-0.86479605226 0.29203636269 0.40730974139 -0.85536389449 0.32121582194 0.40625162903 -0.84098385884 0.35282674796 0.40869612218 
-0.8263313294 0.38451605163 0.4113325469 -0.80534714746 0.41802653468 0.418428684 -0.78552442635 0.44968223428 0.42513205453 
-0.78552442635 0.44968223428 0.42513205453 -0.78552442635 0.44968223428 0.42513205453 
FrenetTangent 3 128 double
-0.94378533108 -0.11414449292 0.31022618133 -0.94378533108 -0.11414449292 0.31022618133 -0.94184868551 -0.12944129901 0.31010643933 
-0.9383172424 -0.15406928713 0.3095535614 -0.93269425649 -0.18774044478 0.30795283618 -0.92440450352 -0.22994982969 0.30430147831 
-0.91288599349 -0.27989369928 0.29715093808 -0.89767829238 -0.33640035679 0.28461989273 -0.8784795529 -0.39789061629 0.26449335078 
-0.85514001856 -0.46237228133 0.23440866476 -0.82757815578 -0.52745307842 0.19211362819 -0.79564232927 -0.59035146087 0.13578820465 
-0.75897770896 -0.64792019942 0.06443797387 -0.71699151168 -0.69674561898 -0.021649817666 -0.66899310103 -0.73344122211 -0.12046661145 
-0.614502955 -0.75522978307 -0.22806598401 -0.5536210404 -0.76071339625 -0.33884933583 -0.48724196219 -0.75050298548 -0.44647568698 
-0.41694650027 -0.72731867957 -0.54512673229 -0.34462772089 -0.69542738467 -0.63056521205 -0.27208064776 -0.65970271042 -0.70054582646 
-0.20076573253 -0.6247655357 -0.75456023355 -0.13178997981 -0.59448167022 -0.79323574364 -0.066028253545 -0.57181541966 -0.81772085431 
-0.0042633400901 -0.55890776831 -0.82921886764 0.052733579127 -0.55723579152 -0.82867812948 0.10417812561 -0.5677610431 -0.81657474617 
0.14927870662 -0.59103728239 -0.79271104356 0.18722329973 -0.62726257039 -0.75596898338 0.21711582518 -0.67622492646 -0.70397483427 
0.23781087937 -0.73704207705 -0.63262545184 0.24761992522 -0.80744511491 -0.53545939065 0.24389213514 -0.88205409191 -0.40310942109 
0.22263322264 -0.94881517795 -0.22401831683 0.17910263273 -0.98377914928 0.010041533537 0.11170323312 -0.95091355373 0.2885927945 
0.029423533161 -0.82367896805 0.56629251565 -0.047898841269 -0.62025787998 0.78293413728 -0.10402214062 -0.39450550393 0.91298674779 
-0.13569315158 -0.18961434366 0.97243702588 -0.14753683126 -0.021786548926 0.98881658042 -0.14550111556 0.10848929038 0.98339183403 
-0.13449253598 0.20547048093 0.9693779651 -0.11824339689 0.27353995039 0.95456502902 -0.099681271145 0.31598962953 0.9435116312 
-0.081245881573 0.33489381743 0.9387466313 -0.065087116634 0.33124764799 0.94129626736 -0.053179934552 0.30515486766 0.95081670227 
-0.047354816823 0.25605566598 0.96550143306 -0.049233037246 0.18313426201 0.98185434262 -0.06002276092 0.086043396168 0.99448167512 
-0.080143467548 -0.033978258483 0.99620404665 -0.1087250603 -0.17274833976 0.97894681795 -0.143226731 -0.32224647505 0.93575814869 
-0.17957334133 -0.47125088792 0.86352534168 -0.21304667911 -0.60795666722 0.76485279845 -0.23958128938 -0.72339523536 0.64753389041 
-0.25670754829 -0.81350745364 0.52183029572 -0.26370156527 -0.87893006541 0.39742096647 -0.26112123907 -0.92331377895 0.28161563187 
-0.25018971339 -0.95150231553 0.17902081123 -0.23230142034 -0.96828138991 0.092017389988 -0.20871085688 -0.97774238349 0.021438510962 
-0.18037252217 -0.98304951899 -0.032854169626 -0.14788112547 -0.98641249176 -0.071565136958 -0.11146148988 -0.9891494759 -0.095706063544 
-0.071004960069 -0.99178024544 -0.10644360197 -0.026142748822 -0.99412705097 -0.10501410964 0.02366122667 -0.99541505083 -0.092676981719 
0.078984665759 -0.99436630241 -0.070690022001 0.14027926675 -0.98929191637 -0.040289347433 0.20767576852 -0.97819401328 -0.0026921287961 
0.28075773817 -0.95890777176 0.040877594256 0.35833848798 -0.92932667506 0.089137304503 0.43831571677 -0.88774325404 0.14068136811 
0.51772036182 -0.83327669068 0.19394737362 0.59304206525 -0.76626683106 0.2472574619 0.66079463577 -0.68845381833 0.29896787347 
0.71818964429 -0.60276747816 0.34767082434 0.76362786216 -0.51277406878 0.39234582007 0.79683101157 -0.42200426327 0.43240344677 
0.81864528359 -0.33341084406 0.46760785784 0.83066151306 -0.24912184709 0.49793549383 0.83482404213 -0.17047988953 0.52345527598 
0.83313394133 -0.098252096559 0.54427416008 0.82746975727 -0.032892138794 0.56054608018 0.81949283889 0.025228577703 0.57253384693 
0.81060302427 0.07567067618 0.58068639196 0.80192006218 0.11784147878 0.5856941179 0.79427090616 0.15099705351 0.58850116181 
0.78817595934 0.17428496798 0.59025706862 0.78383002648 0.186781759 0.59221876372 0.78107075356 0.18758141766 0.59560195575 
0.77934917156 0.17583851142 0.60141141218 0.77770032716 0.15082140699 0.61027461386 0.77473267771 0.11204115233 0.62228294069 
0.76868153594 0.05939933904 0.6368676588 0.75754360939 -0.0065375553806 0.65275182132 0.73935343351 -0.08427111055 0.66802311359 
0.71258826152 -0.17118536946 0.6803774973 0.67661142834 -0.26357663016 0.68754951463 0.63197424422 -0.3571022577 0.68781286131 
0.58038841646 -0.44748384964 0.68037305234 0.52434411729 -0.53122863872 0.66547680655 0.46652408752 -0.60610532647 0.64419842362 
0.40926213033 -0.67120581004 0.61805118659 0.35422177403 -0.72668361304 0.58860671194 0.30231472482 -0.7733765274 0.55722038192 
0.25378023269 -0.81245508535 0.52489268217 0.20835161568 -0.84515296093 0.49224595161 0.16543586223 -0.87260269829 0.45956012276 
0.12426079406 -0.89575150221 0.42683544996 0.083996899255 -0.91532531333 0.39385795879 0.043856052814 -0.93181449435 0.3602754429 
0.0031653158064 -0.94547203552 0.32568790401 -0.038567401374 -0.95633367265 0.28972135251 -0.081594657572 -0.96425152564 0.25211367902 
-0.1258722103 -0.96895058294 0.21281671572 -0.17101252648 -0.97012704874 0.17207040738 -0.21626084859 -0.96757948769 0.13046524585 
-0.26052118852 -0.96136087703 0.088960521823 -0.30244431281 -0.9519145466 0.048848066694 -0.34056952945 -0.94014730021 0.011638278403 
-0.3734918573 -0.92739333826 -0.021105181488 -0.40001518039 -0.91525448163 -0.047927959528 -0.41924423195 -0.90535013507 -0.067641754152 
-0.43060478662 -0.89904087317 -0.079404194539 -0.43060478662 -0.89904087317 -0.079404194539 
FrenetNormal 3 128 double
0.11940967009 -0.99284298887 -0.0020322736422 0.11940967009 -0.99284298887 -0.0020322736422 0.13228875644 -0.99113947093 -0.011926193037 
0.1521530345 -0.98788684623 -0.030480044778 0.17769440771 -0.98221699614 -0.060617406488 0.20724324633 -0.97259564952 -0.10539420944 
0.23882914497 -0.95654500445 -0.1672790901 0.27026024484 -0.93046910921 -0.24735932742 0.29933973931 -0.88982567643 -0.34439219799 
0.32440923058 -0.83000156869 -0.45371361792 0.34503495717 -0.74791007695 -0.56708147133 0.3625767463 -0.64367860991 -0.67395545118 
0.38000836097 -0.52114644256 -0.76419894727 0.40073908511 -0.3865732716 -0.83064390165 0.42726596938 -0.24686308704 -0.86977146865 
0.46048725675 -0.10863733028 -0.88099342611 0.49984520051 0.02190537351 -0.86583770427 0.54429361031 0.13881373192 -0.82733017206 
0.59333803351 0.23653808077 -0.76941517683 0.6474971169 0.31025635195 -0.69605206679 0.70813372913 0.35566597053 -0.60995765351 
0.77654760677 0.36806754966 -0.51137079825 0.85221219298 0.34078664417 -0.39698720544 0.92899804699 0.26384550927 -0.2595152711 
0.98812557398 0.12500690065 -0.089337141409 0.99025685017 -0.077919545694 0.11541193653 0.89186518435 -0.31001976351 0.32933909452 
0.70185213779 -0.50137615903 0.50598964795 0.48597085432 -0.60965870158 0.62621769086 0.29583117473 -0.64167949376 0.70762373006 
0.14409522907 -0.6173331646 0.77339273907 0.025134974104 -0.54713133083 0.83666931335 -0.069984325986 -0.43058534775 0.89983245797 
-0.14793535865 -0.2600036741 0.95420816341 -0.21047638826 -0.028344176304 0.97718795411 -0.25196283143 0.25381869064 0.93385802125 
-0.26175937673 0.54041762384 0.79964418371 -0.23525563356 0.76878848935 0.59465876393 -0.18038001591 0.91022650422 0.372760997 
-0.10853855747 0.97845250432 0.17564190372 -0.02663472312 0.99948230563 0.018047500269 0.064175701871 0.99291119863 -0.1000441449 
0.16870165697 0.96873218383 -0.18192775201 0.30303042528 0.92539237091 -0.22764340802 0.51595922355 0.82720485628 -0.2225268644 
0.91808098483 0.39177833263 -0.060307904763 0.67022700788 -0.6843461605 0.28716909742 0.22870595356 -0.92313293711 0.30906175311 
0.036614276637 -0.96549127281 0.25784878685 -0.070751883011 -0.98121637013 0.17946756263 -0.14015229816 -0.98713535986 0.076948779318 
-0.18570207155 -0.98141270383 -0.048413277016 -0.21165468377 -0.95818108736 -0.19259101397 -0.21897714066 -0.91175384538 -0.34749667236 
-0.20803008958 -0.8397519876 -0.50153771657 -0.18002420152 -0.74499585101 -0.64231804337 -0.13710273071 -0.63506602144 -0.76019338963 
-0.081845141016 -0.51968636239 -0.8504278086 -0.016098340868 -0.40793670477 -0.91286827545 0.059851663422 -0.30666179297 -0.94993490467 
0.14796235265 -0.22030470516 -0.96414365065 0.25318618125 -0.15154250192 -0.9554745563 0.38371495111 -0.10203269154 -0.91779745377 
0.5479303601 -0.072684254832 -0.83336025798 0.73973432449 -0.062289764995 -0.67000978676 0.91103621194 -0.063236319464 -0.40744838744 
0.9930281283 -0.060218388084 -0.101335493 0.98764171806 -0.041924811826 0.15101704176 0.94852229394 -0.0069333148041 0.31663446912 
0.90916376748 0.04276853536 0.41423676355 0.87741618135 0.10535530106 0.46801827447 0.85063381478 0.17923377696 0.49426447004 
0.82338375326 0.26252503046 0.50311013035 0.79049685289 0.3528254728 0.50062851628 0.74788143493 0.4470299852 0.49075202661 
0.69315419355 0.54141126804 0.47582675713 0.62566713555 0.63185136478 0.45749807466 0.5464779433 0.71434560191 0.43711808304 
0.45820393587 0.78568051898 0.41563839481 0.3644071895 0.84392081298 0.39370682196 0.2690461286 0.88861683497 0.37144892151 
0.17607857571 0.92072482199 0.34822713472 0.089098547585 0.94226745901 0.32279015553 0.011017505662 0.95582667648 0.293724325 
-0.056137256422 0.96398903732 0.25994950349 -0.11131467615 0.96886104225 0.22117261062 -0.15463942364 0.97170766658 0.17852411426 
-0.18732398725 0.97301932483 0.13469638934 -0.21221382597 0.972607267 0.0948704182 -0.23520913392 0.96951427027 0.068693107867 
-0.27392910217 0.95817376804 0.082860589084 -0.42833793291 0.85311585828 0.29785893907 -0.28858428228 -0.7374106894 0.61069189219 
-0.073161406024 -0.92771504871 0.36604944619 -0.059598351927 -0.94873092319 0.31041532152 -0.086910920954 -0.95596325593 0.28032257336 
-0.132790263 -0.95916623523 0.24973361659 -0.19063567188 -0.95857537294 0.21163954026 -0.25627157477 -0.95268433854 0.16345467587 
-0.32623126519 -0.93940470998 0.10531833879 -0.39666300957 -0.91714568999 0.038758743296 -0.46364433202 -0.88538132721 -0.033672523228 
-0.52386686229 -0.84482766339 -0.10876456115 -0.57499945129 -0.79732721431 -0.18342558259 -0.61597937344 -0.74530033751 -0.25514078153 
-0.64706834528 -0.69108102191 -0.32203971448 -0.66954727458 -0.6364895854 -0.38286741148 -0.68524820584 -0.58268195203 -0.43694008648 
-0.69633900591 -0.53010095941 -0.48384394352 -0.70486457573 -0.47866672146 -0.52349221545 -0.71242968602 -0.42796257737 -0.55614024746 
-0.72002798513 -0.37738405809 -0.58235811433 -0.7276608503 -0.32637711721 -0.60331390197 -0.73485254895 -0.27439514487 -0.620241111 
-0.74090523174 -0.22095222329 -0.63422358251 -0.74482862543 -0.16576989569 -0.64633633692 -0.74609314558 -0.1086248165 -0.65692135553 
-0.74433257889 -0.049577318886 -0.66596629153 -0.73928464748 0.010896602416 -0.67330488938 -0.73098633281 0.07188099022 -0.67859568558 
-0.71966445347 0.13194434847 -0.68166983454 -0.7060904883 0.18932572891 -0.68234301543 -0.69111303787 0.2419256475 -0.68105414613 
-0.67606799508 0.28771234538 -0.67834627761 -0.66252886876 0.32490234275 -0.6749029306 -0.65163538459 0.35195802979 -0.67193516861 
-0.64482834725 0.36801313338 -0.66989755653 -0.64482834725 0.36801313338 -0.66989755653 
FrenetBinormal 3 128 double
0.30823786194 0.035125975914 0.9506606052 0.30823786194 0.035125975914 0.9506606052 0.30890247413 0.02979092599 0.95062703633 
0.31049993028 0.018499562143 0.95039337092 0.31385684856 -0.0018160100481 0.94946857806 0.32019767445 -0.03436245562 0.94672734772 
0.33105860872 -0.081738433893 0.94006330958 0.34804178405 -0.14512765674 0.92617756386 0.37238339867 -0.22336813344 0.90079813574 
0.40434416006 -0.31194433707 0.85976539288 0.44279258621 -0.40301832075 0.8009437925 0.48527454798 -0.48699383958 0.72618566035 
0.52872155516 -0.55552299736 0.64175362602 0.57037825856 -0.60424055484 0.55638295629 0.60818748933 -0.63334239552 0.47852417687 
0.64057599445 -0.64639454302 0.4145316515 0.66607696188 -0.64871818487 0.36811166441 0.68289072043 -0.64612384 0.34085810439 
0.68855326149 -0.64424938858 0.33292211012 0.67969053076 -0.64816799422 0.34336428712 0.65155102853 -0.66203780199 0.37038791281 
0.59721598694 -0.68861767643 0.41126483031 0.50632576406 -0.72832410843 0.46171226291 0.3641468089 -0.77679641676 0.51379414991 