# vtk DataFile Version 4.2
vtk output
ASCII
DATASET POLYDATA
POINTS 128 float
0 0 0 -0.26136 -0.013094 0.209741 -0.790839 -0.0299789 0.602568 
-1.26878 -0.0233828 0.884043 -1.69517 0.00148958 1.06867 -2.152 0.031721 1.24813 
-2.634 0.0659089 1.42099 -3.11741 0.104977 1.56621 -3.60125 0.146298 1.6879 
-4.09006 0.186356 1.79601 -4.58294 0.222318 1.89341 -5.07767 0.251337 1.98117 
-5.57365 0.269435 2.06228 -6.0706 0.272043 2.14039 -6.56722 0.253391 2.21919 
-7.06155 0.207287 2.30244 -7.54997 0.127454 2.39397 -8.02816 0.00830073 2.49735 
-8.49107 -0.151505 2.61464 -8.93387 -0.351039 2.74698 -9.35494 -0.585133 2.89348 
-9.75425 -0.846974 3.05243 -10.1345 -1.12976 3.22188 -10.4994 -1.42695 3.39975 
-10.853 -1.73367 3.58407 -11.1992 -2.04592 3.77292 -11.5417 -2.36069 3.96436 
-11.8837 -2.67561 4.15626 -12.2288 -2.9894 4.34469 -12.5804 -3.30131 4.52496 
-12.94 -3.61048 4.69271 -13.309 -3.91638 4.84133 -13.6963 -4.22201 4.94336 
-14.109 -4.53024 4.9599 -14.5036 -4.8261 4.84512 -14.8139 -5.08737 4.55867 
-15.0191 -5.31387 4.14506 -15.1252 -5.51758 3.68962 -15.1544 -5.71253 3.22778 
-15.1363 -5.91295 2.7672 -15.0843 -6.12527 2.3135 -15.0029 -6.35148 1.87113 
-14.8966 -6.59364 1.44301 -14.77 -6.85381 1.03125 -14.6264 -7.13369 0.638382 
-14.4682 -7.43472 0.267286 -14.298 -7.7585 -0.0784987 -14.1186 -8.1067 -0.394882 
-13.9334 -8.48096 -0.676232 -13.7462 -8.88283 -0.915676 -13.5623 -9.31262 -1.10375 
-13.3877 -9.76943 -1.22912 -13.2309 -10.2466 -1.27974 -13.1013 -10.7329 -1.24377 
-13.005 -11.2136 -1.12037 -12.945 -11.6713 -0.917419 -12.9188 -12.0977 -0.64907 
-12.9196 -12.4912 -0.333977 -12.941 -12.8549 0.0133516 -12.9766 -13.1956 0.382018 
-13.0213 -13.5202 0.76381 -13.0703 -13.8355 1.15274 -13.1194 -14.1483 1.54353 
-13.164 -14.4654 1.93151 -13.1996 -14.7932 2.31153 -13.2211 -15.1375 2.67805 
-13.224 -15.5022 3.02502 -13.204 -15.8894 3.34604 -13.159 -16.2982 3.63668 
-13.0893 -16.7248 3.89465 -12.9967 -17.1649 4.12081 -12.8848 -17.6137 4.31926 
-12.7575 -18.0676 4.49511 -12.6184 -18.5241 4.6544 -12.4704 -18.9815 4.80258 
-12.3156 -19.4387 4.94434 -12.1556 -19.8948 5.08364 -11.9909 -20.349 5.22356 
-11.8216 -20.8006 5.36659 -11.6467 -21.2485 5.51449 -11.4647 -21.6914 5.66851 
-11.2731 -22.1279 5.82925 -11.0689 -22.5561 5.99693 -10.8484 -22.9734 6.17128 
-10.608 -23.377 6.3517 -10.3447 -23.7636 6.53725 -10.0565 -24.13 6.72695 
-9.74265 -24.473 6.91992 -9.40401 -24.7898 7.11562 -9.04304 -25.0791 7.31405 
-8.66281 -25.3399 7.51578 -8.26701 -25.5724 7.72217 -7.85936 -25.7769 7.93485 
-7.44343 -25.9543 8.15578 -7.02271 -26.1051 8.387 -6.60054 -26.2304 8.63058 
-6.18019 -26.3308 8.88837 -5.76478 -26.4078 9.16174 -5.35714 -26.4631 9.45159 
-4.95961 -26.4989 9.75799 -4.57391 -26.5184 10.0805 -4.2007 -26.5258 10.4179 
-3.84 -26.5255 10.7686 -3.49067 -26.523 11.1306 -3.15122 -26.5239 11.5019 
-2.81965 -26.5345 11.8801 -2.49401 -26.561 12.2627 -2.17266 -26.6097 12.6468 
-1.8544 -26.6863 13.0291 -1.53913 -26.7948 13.4061 -1.22725 -26.938 13.7743 
-0.920095 -27.116 14.1312 -0.619174 -27.3276 14.4747 -0.326113 -27.5694 14.8048 
-0.0424682 -27.8374 15.1225 0.230447 -28.1273 15.4302 0.491208 -28.4346 15.7312 
0.737935 -28.7559 16.0298 0.968768 -29.0879 16.33 1.18217 -29.4268 16.6334 
1.37513 -29.7704 16.9431 1.53965 -30.1201 17.2695 1.67036 -30.4738 17.6163 
1.77464 -30.8132 17.9582 1.84992 -31.1326 18.2918 1.84643 -31.4865 18.7172 
1.74846 -31.8718 19.2429 1.68171 -32.0607 19.5131 
LINES 1 129
128 0 1 2 3 4 5 6 7 8 9 10 11 12 13 14 15 16 17 18 19 20 21 22 23 24 25 26 27 28 29 30 31 32 33 34 35 36 37 38 39 40 41 42 43 44 45 46 47 48 49 50 51 52 53 54 55 56 57 58 59 60 61 62 63 64 65 66 67 68 69 70 71 72 73 74 75 76 77 78 79 80 81 82 83 84 85 86 87 88 89 90 91 92 93 94 95 96 97 98 99 100 101 102 103 104 105 106 107 108 109 110 111 112 113 114 115 116 117 118 119 120 121 122 123 124 125 126 127 

CELL_DATA 1
FIELD FieldData 2
Length 1 1 double
60.423739328 
Tortuosity 1 1 double
0.60831308061 
POINT_DATA 128
SCALARS MaximumInscribedSphereRadius float
LOOKUP_TABLE default
1.24 1.24 1.24 1.28296 1.32981 1.41605 1.50324 1.45595 1.4016 
1.31263 1.22116 1.13126 1.04152 1.03032 1.02795 1.12385 1.23285 1.41079 
1.59939 1.6864 1.75554 1.6894 1.59643 1.66199 1.76282 1.84553 1.92373 
1.92279 1.90005 1.76025 1.58491 1.38611 1.17951 1.15762 1.20253 1.19329 
1.16403 1.20552 1.27355 1.45179 1.67425 1.85132 2.00869 1.95576 1.80429 
1.71197 1.64951 1.68296 1.76843 1.82265 1.85873 1.87629 1.88239 1.88397 
1.8826 1.878 1.87119 1.89583 1.94323 2.0103 2.09258 2.14074 2.16065 
2.2343 2.35562 2.51716 2.71686 2.65272 2.32171 2.07261 1.91177 1.9582 
2.24283 2.42556 2.48296 2.49118 2.43459 2.32545 2.1421 2.05798 2.1242 
2.24497 2.45457 2.54736 2.4358 2.32086 2.19955 2.13481 2.18447 2.21963 
2.22322 2.22116 2.20582 2.19503 2.19583 2.21071 2.26458 2.32654 2.41291 
2.48014 2.48408 2.487 2.4862 2.48857 2.50374 2.53554 2.64228 2.74497 
2.82716 2.89368 2.87029 2.83743 2.74254 2.64216 2.50002 2.35578 2.1925 
2.05055 2.1455 2.25034 2.49495 2.71414 2.43914 2.16813 2.06139 1.97143 
2.07071 2.17 
TEXTURE_COORDINATES TCoords 2 float
0 0 0.00787402 0 0.015748 0 0.023622 0 0.0314961 
0 0.0393701 0 0.0472441 0 0.0551181 0 0.0629921 0 
0.0708661 0 0.0787402 0 0.0866142 0 0.0944882 0 0.102362 
0 0.110236 0 0.11811 0 0.125984 0 0.133858 0 
0.141732 0 0.149606 0 0.15748 0 0.165354 0 0.173228 
0 0.181102 0 0.188976 0 0.19685 0 0.204724 0 
0.212598 0 0.220472 0 0.228346 0 0.23622 0 0.244094 
0 0.251969 0 0.259843 0 0.267717 0 0.275591 0 
0.283465 0 0.291339 0 0.299213 0 0.307087 0 0.314961 
0 0.322835 0 0.330709 0 0.338583 0 0.346457 0 
0.354331 0 0.362205 0 0.370079 0 0.377953 0 0.385827 
0 0.393701 0 0.401575 0 0.409449 0 0.417323 0 
0.425197 0 0.433071 0 0.440945 0 0.448819 0 0.456693 
0 0.464567 0 0.472441 0 0.480315 0 0.488189 0 
0.496063 0 0.503937 0 0.511811 0 0.519685 0 0.527559 
0 0.535433 0 0.543307 0 0.551181 0 0.559055 0 
0.566929 0 0.574803 0 0.582677 0 0.590551 0 0.598425 
0 0.606299 0 0.614173 0 0.622047 0 0.629921 0 
0.637795 0 0.645669 0 0.653543 0 0.661417 0 0.669291 
0 0.677165 0 0.685039 0 0.692913 0 0.700787 0 
0.708661 0 0.716535 0 0.724409 0 0.732283 0 0.740157 
0 0.748031 0 0.755906 0 0.76378 0 0.771654 0 
0.779528 0 0.787402 0 0.795276 0 0.80315 0 0.811024 
0 0.818898 0 0.826772 0 0.834646 0 0.84252 0 
0.850394 0 0.858268 0 0.866142 0 0.874016 0 0.88189 
0 0.889764 0 0.897638 0 0.905512 0 0.913386 0 
0.92126 0 0.929134 0 0.937008 0 0.944882 0 0.952756 
0 0.96063 0 0.968504 0 0.976378 0 0.984252 0 
0.992126 0 1 0 
FIELD FieldData 7
Curvature 1 128 double
0 0.01842161953 0.033233774548 0.045129735819 0.05335045866 0.057668516596 0.058445638908 0.056658503971 0.053901433281 
0.052294513662 0.053908834654 0.05969292249 0.068970905591 0.080179095922 0.091652768908 0.10189921535 0.10964912562 0.11392825909 
0.11413495954 0.11015409649 0.10232822618 0.09143165942 0.078674182187 0.065857654465 0.05618929745 0.054839065235 0.065913099368 
0.088664991617 0.12109969623 0.16259676271 0.21293655958 0.2702902891 0.32891720379 0.37786013702 0.40364481778 0.39784228356 
0.36341995015 0.31256540533 0.25878341749 0.21139302598 0.17511789516 0.15152390584 0.14049875151 0.14054973967 0.14933736542 
0.16460833851 0.18465168644 0.20813883152 0.23368281878 0.2592890367 0.28209478586 0.29843510955 0.3046521233 0.29833880519 
0.27940828501 0.25012629153 0.21417227147 0.17524613041 0.13618446557 0.098762658583 0.063910473536 0.032415710299 0.011475004875 
0.028542730852 0.050852595636 0.070046396576 0.08498601982 0.095027472404 0.09998050689 0.10000958931 0.09580157429 0.088370051036 
0.078953938996 0.068865186247 0.059420311638 0.051957867149 0.047674341793 0.047303488399 0.050597036454 0.05662962711 0.064391579399 
0.073087942843 0.082132867975 0.090996502847 0.099226156112 0.10636353816 0.11202279107 0.11601204737 0.11818700179 0.11862328552 
0.11754046939 0.11517659565 0.11185006376 0.1077202794 0.10292402911 0.09741955483 0.091121706294 0.083937072743 0.07581126447 
0.066986079822 0.057950795861 0.04988549658 0.044644496678 0.044364367733 0.049569269922 0.058671220651 0.069428844972 0.080129601463 
0.089520015458 0.096731054405 0.10128322465 0.10303441312 0.10229394107 0.099721024181 0.096294353414 0.093191852855 0.091470903737 
0.0917026987 0.093683524982 0.096344823942 0.098056940375 0.097041636256 0.091768275185 0.081339121301 0.065651482487 0.045447638502 
0.022076150874 0 
Torsion 1 128 double
0 0 0.046254915782 0.070582173486 0.10438075631 0.1524861529 0.22171326546 0.31864931361 0.43927512755 
0.54596425528 0.56956119627 0.49172992417 0.37433446406 0.27092316595 0.19499218031 0.14189031344 0.1041096855 0.075005294476 
0.049037319801 0.020515973171 -0.018368345737 -0.080397682912 -0.18892079235 -0.3811389488 -0.66027740439 -0.80381743117 -0.59638292519 
-0.32001292169 -0.13886310083 -0.033723281084 0.029234187237 0.069966942191 0.099277585244 0.1238670655 0.14865137964 0.1780326747 
0.21598509555 0.26605758832 0.33122910042 0.41164727735 0.497264796 0.56029970319 0.56504927834 0.50461368214 0.41139016028 
0.31937709045 0.24358559853 0.18556075502 0.14166855676 0.10853864453 0.08322395704 0.063514477501 0.047882876882 0.035105143966 
0.024090553539 0.013798667938 0.0029274741821 -0.010764782936 -0.031746688958 -0.072616736101 -0.18135223607 -0.6842744544 -5.0197629641 
-0.70726653803 -0.18124946088 -0.069447573651 -0.026740636909 -0.003663827163 0.013658382753 0.031124517421 0.052598229672 0.082082002629 
0.12548152672 0.18902977973 0.27564305208 0.37386753527 0.43889739654 0.41989116625 0.32827179392 0.22223779256 0.13797348852 
0.082519954151 0.050918507005 0.036338060181 0.033655862817 0.039011526118 0.050080810963 0.065072763696 0.082749920942 0.10237252003 
0.12231704373 0.14152873802 0.15931271671 0.17479659761 0.18794757102 0.20048879225 0.21503559732 0.23652652906 0.27262468698 
0.33427236371 0.43757368375 0.59040004987 0.74652687185 0.76487685817 0.61053649822 0.42059837943 0.2755616025 0.17534570114 
0.10354716714 0.04733769986 -0.0020505939723 -0.050388802977 -0.10158991326 -0.15740274181 -0.21539008014 -0.26728315951 -0.29980319892 
-0.30173786798 -0.27428526955 -0.22910178042 -0.18014611229 -0.13604869534 -0.10007071762 -0.071385708919 -0.048599155849 -0.032301891782 
0 0 
Abscissas 1 128 double
0 0.5030186964 1.0060373928 1.5090546941 2.0120718691 2.5150899623 3.0181080774 3.5211282675 4.0241485667 
4.5271679426 5.0301872518 5.5332065398 6.0362258258 6.5392466192 7.0422675818 7.5452832787 8.0482982732 8.5513162674 
9.0543347254 9.5573535616 10.060372464 10.563405764 11.066441919 11.56945936 12.072472637 12.5754804 13.078486793 
13.581512141 14.084542711 14.587553834 15.090559051 15.593578496 16.096602679 16.599626402 17.102649958 17.605670735 
18.108690485 18.61170768 19.114723915 19.617745464 20.120769143 20.623783657 21.126794193 21.629810282 22.132828972 
22.635852883 23.138879429 23.641901199 24.144920379 24.647942535 25.150966422 25.653972346 26.156967161 26.660001233 
27.16306092 27.666093034 28.169106307 28.672126163 29.175150785 29.678161694 30.181162003 30.684177129 31.187204522 
31.690220691 32.193226907 32.696252495 33.199296456 33.702312662 34.205300796 34.708314727 35.211356459 35.71438014 
36.217383073 36.720387894 37.223395036 37.726409842 38.229434746 38.73246834 39.235514212 39.738533421 40.241512232 
40.744509813 41.247537953 41.750566792 42.25359685 42.756619615 43.259628663 43.762642812 44.265667278 44.768687921 
45.271700239 45.774715483 46.277737612 46.780758556 47.283776481 47.78679505 48.2898154 48.792835543 49.295855057 
49.798877461 50.301909422 50.804938891 51.307959286 51.810974251 52.313967307 52.816969321 53.320011707 53.823048207 
54.326054903 54.82906336 55.33208191 55.835100464 56.338119042 56.841137977 57.344159623 57.847181726 58.350207971 
58.853233445 59.356250345 59.859266139 60.362266297 60.865267347 61.36828576 61.871303994 62.374314894 62.877326902 
63.380351404 63.883375906 
ParallelTransportNormals 3 128 double
0.60375004647 0 0.79717368333 0.53064631426 0.00018860196733 0.84283392076 0.45754258205 0.00037720393467 0.88849415819 
0.40376923534 0.0029475020688 0.91319559013 0.35174483805 0.0057332882028 0.93600073861 0.30904807416 0.0089586338912 0.94992417751 
0.26657516397 0.012194528561 0.96363446444 0.23621121511 0.014615840866 0.97110096175 0.20648356889 0.016994348435 0.97823935993 
0.18746460602 0.018192911588 0.98192479312 0.16921881927 0.019306281742 0.98536091928 0.16227794452 0.019465795524 0.98653476226 
0.15637283454 0.019537916247 0.9875013331 0.16418703975 0.020206864799 0.98617610634 0.17354097748 0.020942795939 0.98459366882 
0.19613118529 0.025792035744 0.97990747925 0.22048688403 0.031189920226 0.97480730251 0.2506169234 0.04291970349 0.96651600773 
0.2816399011 0.055628645317 0.95773124162 0.30828594804 0.070974819148 0.94811204121 0.33416207027 0.086784895699 0.9383460595 
0.3522909699 0.10019110884 0.93024555218 0.36888367329 0.11312066007 0.92247529165 0.37838033675 0.12118213859 0.91761459948 
0.38629830116 0.12816058744 0.91340121665 0.38703748229 0.12878570237 0.91302462319 0.38599407834 0.127833202 0.91360075434 
0.37425231396 0.11738985214 0.91963390683 0.35956309027 0.1043317191 0.92717049983 0.32062495141 0.071772211607 0.9424828925 
0.27432248498 0.033290191358 0.96015677374 0.14692468103 -0.066029970468 0.96841037097 -0.0074763652618 -0.18560810434 0.97352718845 
-0.20719311179 -0.35250836727 0.85638213527 -0.42329545531 -0.53651972706 0.69502870109 -0.51512612516 -0.63849739817 0.54971552078 
-0.56101313632 -0.71014693672 0.41033247666 -0.57360739042 -0.74197214782 0.34473020326 -0.57371645492 -0.75886275082 0.30679661796 
-0.57345084696 -0.76461029661 0.29413880603 -0.57303496063 -0.76588844387 0.29161892141 -0.57560072307 -0.76053579234 0.30005507707 
-0.57946039088 -0.75230566366 0.31324567581 -0.58722159956 -0.73705492792 0.33322216042 -0.59681114481 -0.71851420162 0.35637864075 
-0.61145914932 -0.68987287965 0.38476038313 -0.62866071762 -0.65613267004 0.4157798931 -0.65251766615 -0.60570781368 0.44988738854 
-0.67998412383 -0.54623413017 0.48566963607 -0.71404497506 -0.46127610346 0.51645717359 -0.75193656951 -0.36151398993 0.54434323864 
-0.78938182279 -0.23828979832 0.5499973417 -0.8265510399 -0.1005556696 0.54190226325 -0.85192704647 0.029107676553 0.50764112117 
-0.8696075917 0.15350456919 0.45630575404 -0.8773550426 0.24719974433 0.40261632073 -0.8783147306 0.31991495376 0.34731824034 
-0.87701296425 0.36919411351 0.30449325954 -0.87407368125 0.40150325518 0.27070003658 -0.87218532872 0.41979819918 0.25089737938 
-0.8711094595 0.4272586472 0.24191094811 -0.8715408204 0.4235939368 0.24628743358 -0.87322002106 0.41071867849 0.26172711295 
-0.87503548946 0.38573504106 0.288808655 -0.87697176668 0.3500166604 0.32621134782 -0.87627554597 0.30298540576 0.36880640681 
-0.87308234564 0.24522365246 0.41632653422 -0.86630243865 0.18434843928 0.4595805124 -0.85589466758 0.12032403932 0.49851938734 
-0.84458658569 0.063126025772 0.5295011478 -0.83230822325 0.013284926911 0.55190738838 -0.82163293712 -0.026950748138 0.56872090839 
-0.81280008282 -0.056146812446 0.57910665809 -0.80590089675 -0.078249552219 0.58672643055 -0.80137945971 -0.091629934534 0.59094499924 
-0.79800826187 -0.10143591012 0.59403006037 -0.79615260273 -0.10653229858 0.59562162817 -0.79435939003 -0.11130375271 0.59715071177 
-0.79265438929 -0.11561620403 0.5985915301 -0.7897868325 -0.12231493838 0.60098587883 -0.7851578647 -0.13262917603 0.60482493981 
-0.77807164084 -0.14676856928 0.61047735849 -0.76698464365 -0.16713587701 0.6190821895 -0.7526076319 -0.1905190514 0.62962690664 
-0.73247486232 -0.21917837206 0.64356538222 -0.70975614135 -0.24805823646 0.65849214752 -0.68217500165 -0.2773527939 0.67527721474 
-0.65443845286 -0.3042111664 0.69161140079 -0.62638757404 -0.32614211803 0.70703363583 -0.60061422346 -0.34492694662 0.721051684 
-0.57980232121 -0.35685814913 0.73201080164 -0.56234068809 -0.36641463943 0.74124519938 -0.55276224791 -0.37038342506 0.74642132619 
-0.54655809718 -0.37304101468 0.74974037515 -0.54895566633 -0.37235611075 0.74832537161 -0.55404461781 -0.37126697725 0.74504145223 
-0.56659011196 -0.36905791552 0.7365796544 -0.58069225425 -0.36700289418 0.72653431979 -0.59949730196 -0.36541325566 0.71170484453 
-0.61868507096 -0.36409318715 0.69594887027 -0.63913885987 -0.36366484062 0.67712809096 -0.65928417768 -0.36330943543 0.65806996267 
-0.67830659329 -0.36321955269 0.63814783217 -0.69686775835 -0.36295723373 0.61838863244 -0.71356816114 -0.36199927808 0.59928672286 
-0.72986497755 -0.36071752708 0.58052446997 -0.74434312887 -0.35797667003 0.56329279843 -0.75853597194 -0.35487243433 0.54640804254 
-0.77128431334 -0.34992843037 0.53127970352 -0.78387360018 -0.34463900547 0.51639439296 -0.79555088958 -0.33736898352 0.50290257482 
-0.80722848925 -0.32972402305 0.48945007397 -0.81890812335 -0.31962058621 0.47625537697 -0.83076643763 -0.30899728024 0.4628299095 
-0.84398601151 -0.29441339602 0.44764633709 -0.85747168901 -0.27913899606 0.43198498254 -0.87336772978 -0.257609913 0.41199588317 
-0.88949325769 -0.23525649097 0.39129395609 -0.90816693775 -0.20374987124 0.36267701685 -0.92689871857 -0.17132765469 0.33309057615 
-0.94645133945 -0.12597000546 0.28980714521 -0.965670436 -0.08016236764 0.24582825747 -0.978405403 -0.025606389846 0.18832882129 
-0.99071156709 0.029587476276 0.12979656158 -0.98539326581 0.11099954291 0.028813651149 -0.98050805958 0.18578183044 -0.063945731529 
-0.98050805958 0.18578183044 -0.063945731529 -0.98050805958 0.18578183044 -0.063945731529 
FrenetTangent 3 128 double
-0.89557957059 0.025711354747 0.44415780865 -0.89557957059 0.025711354747 0.44415780865 -0.90108620934 0.027607375713 0.43276029872 
-0.90919011738 0.030063325924 0.41529450622 -0.91894587015 0.032298550651 0.39305889044 -0.92936402321 0.033372031215 0.36765312443 
-0.93957368018 0.032272839954 0.34082218724 -0.94891473748 0.028004737729 0.31428737749 -0.95694688261 0.019654680971 0.28959688774 
-0.96339168833 0.0064438527489 0.26802039405 -0.96803946897 -0.01223239548 0.25049941122 -0.97065737829 -0.036764937295 0.2376396292 
-0.97092664711 -0.06728339867 0.22972677291 -0.96842613808 -0.10360036142 0.22675489013 -0.96267380553 -0.14515633083 0.22844864577 
-0.95322410326 -0.19098671497 0.23428163324 -0.9398047683 -0.239738735 0.24350017747 -0.92245915916 -0.28976051283 0.25516258518 
-0.90165071924 -0.3392645816 0.26818934388 -0.87828516486 -0.38654349449 0.28142369491 -0.85363327726 -0.43018525363 0.29368499367 
-0.82917528946 -0.4692327339 0.30379101499 -0.80640104424 -0.50326530507 0.31055013856 -0.78662225164 -0.53238552872 0.31271565684 
-0.77081853686 -0.55714082819 0.30892212739 -0.75952150397 -0.57840401826 0.29761699659 -0.75272213319 -0.59722741886 0.27699963966 
-0.74976662236 -0.6146824052 0.24498071912 -0.74921343694 -0.63166586545 0.19919201877 -0.74862056267 -0.64866395313 0.1371215849 
-0.74429788215 -0.66545317239 0.056504318233 -0.73117640229 -0.68077992059 -0.043815162502 -0.70317789566 -0.69221288611 -0.16242588265 
-0.65463817851 -0.69656191945 -0.29368409492 -0.58286626304 -0.69122178234 -0.42717603752 -0.49048239316 -0.67599815067 -0.54995774591 
-0.38521010591 -0.65394691828 -0.65112717835 -0.27670437376 -0.63023904266 -0.7254194915 -0.17297423943 -0.61002777823 -0.7732696957 
-0.078789070233 -0.59699773962 -0.79836456666 0.003968090868 -0.59309958998 -0.80511932695 0.075190444381 -0.59894633921 -0.79725132789 
0.13557184093 -0.61431401951 -0.77732783392 0.18601687854 -0.63850023584 -0.74680330056 0.22732142294 -0.6704998498 -0.70622582938 
0.26002693361 -0.70905493508 -0.65545945171 0.28437738309 -0.75260157197 -0.59390266699 0.30032016779 -0.79914901221 -0.52073856503 
0.30755364631 -0.84614608852 -0.43525573118 0.30567031576 -0.89039301704 -0.33729205932 0.29438087645 -0.92814751165 -0.22777641712 
0.27384058389 -0.95555216109 -0.10923095734 0.2449916688 -0.96942351431 0.01404037448 0.20973605598 -0.96820148913 0.1363695834 
0.17079050864 -0.95259796796 0.25176916729 0.13123009345 -0.92553332246 0.35519956586 0.093923385155 -0.89135909706 0.44346066095 
0.061122828683 -0.85478597917 0.51536873172 0.034331664945 -0.82000478786 0.57132607561 0.014380364043 -0.79021605314 0.61265960735 
0.0016016298216 -0.76751891692 0.64102429513 -0.0039976655772 -0.75300552257 0.65800205292 -0.0026324694494 -0.7469060424 0.66492438212 
0.005306963335 -0.74873860502 0.66284412759 0.019259209184 -0.75743901957 0.6526218005 0.038468352618 -0.77149043214 0.63507692366 
0.061976844445 -0.78908702022 0.61114690973 0.088648460834 -0.80832340463 0.58202639452 0.11724789235 -0.82742503679 0.54920009126 
0.1465635138 -0.84493901869 0.51439011568 0.17554188821 -0.85985147364 0.47941682153 0.20340058257 -0.87161229355 0.44600472277 
0.22968404237 -0.88006392717 0.41561126642 0.25428202194 -0.88530791056 0.38932063497 0.27738606567 -0.88756879305 0.36780240371 
0.29942280481 -0.8870805936 0.35133175834 0.32098459595 -0.88400617607 0.33985580741 0.34275080301 -0.87840258459 0.33306273646 
0.36541826922 -0.87020898642 0.33046302133 0.3896222752 -0.859259001 0.33146410344 0.41586969448 -0.84530190441 0.33543566838 
0.44447691964 -0.82803638777 0.34175431005 0.47552330206 -0.80714627049 0.34984637663 0.50881581864 -0.78234581174 0.3592234591 
0.54388423434 -0.75343106864 0.36950177869 0.58000288277 -0.72033049784 0.38042164747 0.6162404304 -0.68315557767 0.3918497016 
0.65155338836 -0.64221329398 0.40378245029 0.68487797308 -0.59800832079 0.41632704723 0.71521732613 -0.55122554167 0.4296679865 
0.74172344471 -0.50266973056 0.44403769384 0.76374688794 -0.45322184356 0.4596527512 0.78085912293 -0.40379041084 0.47666794967 
0.79284629579 -0.35528455206 0.49514405815 0.79970316465 -0.308604424 0.51501277453 0.80162378696 -0.26463435447 0.5360671251 
0.79898347159 -0.22425357283 0.55797468329 0.79232720029 -0.18832252049 0.58030357224 0.78234265981 -0.15768194708 0.60255818492 
0.76981869711 -0.13311761656 0.6242266205 0.75559186916 -0.11533041136 0.64480991267 0.74047498099 -0.10489668988 0.66384748774 
0.72518306119 -0.10222560909 0.68092543836 0.71026316609 -0.10753776008 0.69567367713 0.69604704337 -0.12082455251 0.70775697872 
0.68262320942 -0.1418236074 0.71687629222 0.66983722755 -0.169978342 0.72279004686 0.65732582867 -0.20442751888 0.72534967049 
0.64457086524 -0.24402054838 0.72455667249 0.63097291472 -0.28735164791 0.72062626328 0.61592675134 -0.33285598571 0.71403160278 
0.59888339131 -0.37893054342 0.70551422868 0.57938622874 -0.42406978981 0.69604339758 0.55707383443 -0.46698326117 0.68672802242 
0.53166398211 -0.50665610362 0.67869949374 0.50293244698 -0.54237010669 0.67297371504 0.47070795202 -0.57366860295 0.67032705293 
0.43491131703 -0.60028480625 0.67120063894 0.39564031065 -0.62208512843 0.67563217624 0.35329617225 -0.63903297296 0.68324130009 
0.30872887031 -0.65121685519 0.69325543066 0.26334027632 -0.65891643261 0.70461410268 0.21909272166 -0.66268135423 0.71613672024 
0.17837810668 -0.66336858553 0.72672097176 0.143740481 -0.6621060069 0.73549596175 0.11753312644 -0.66012342838 0.74190499627 
0.10159675933 -0.65850710523 0.74568524919 0.10159675933 -0.65850710523 0.74568524919 
FrenetNormal 3 128 double
-0.43504476922 0.15836854858 -0.88637207289 -0.43504476922 0.15836854858 -0.88637207289 -0.42496741976 0.14237153469 -0.89394241327 
-0.40959605262 0.11474896517 -0.90502140785 -0.39010166344 0.072024733188 -0.9179505052 -0.36758088142 0.0084975737785 -0.92995273367 
-0.34234358496 -0.084289155327 -0.9357864116 -0.31268288675 -0.21702441492 -0.92473229405 -0.27331402684 -0.3969529063 -0.87620079486 
-0.21606475311 -0.61051825253 -0.76196029148 -0.13822445109 -0.80739844547 -0.57358674268 -0.051189272125 -0.93400082938 -0.35358465626 
0.030676327969 -0.98674532062 -0.15935066718 0.10315336028 -0.99456898767 -0.013853267971 0.16878066059 -0.98176935131 0.087418701932 
0.23072702223 -0.96046608546 0.15578812499 0.29065467264 -0.93553956501 0.20071268912 0.34872979524 -0.90892958983 0.22854874895 
0.40404213762 -0.88195797549 0.24269338782 0.45510917017 -0.85630133036 0.24417959547 0.50006306524 -0.83462425676 0.23095298399 
0.53641652256 -0.82080696409 0.19629885895 0.55947876506 -0.81937274568 0.1249472492 0.55673731598 -0.83057765529 -0.013576432759 
0.4952094739 -0.82907971628 -0.25960431625 0.33652000951 -0.74093844441 -0.58117510683 0.14683942576 -0.56246269188 -0.81367923857 
0.032416201457 -0.40390380205 -0.91422694588 -0.0005976581612 -0.30010010489 -0.95390752689 0.022005608754 -0.23101660334 -0.97270092123 
0.082825652981 -0.17592933524 -0.9809122184 0.1721740267 -0.12200870565 -0.97748144753 0.28296955592 -0.062879097622 -0.95706554086 
0.40734271381 0.0022274580289 -0.91327266024 0.53550201991 0.068639463551 -0.84173998997 0.65717532128 0.12753578953 -0.74286958445 
0.76495784249 0.16839509791 -0.62167723958 0.85581984651 0.18170595847 -0.48430913162 0.92906003164 0.1595989066 -0.3337299007 
0.9810660587 0.095696635069 -0.16837916291 0.99981095209 -0.01297226513 0.014483798175 0.96490622956 -0.15802695516 0.20972231544 
0.86293405055 -0.31226694713 0.39728349843 0.70856623755 -0.43938352059 0.55215578313 0.53751814256 -0.51833647044 0.66513273099 
0.37792444521 -0.54992600613 0.74481843525 0.24051146625 -0.54366510278 0.80410353228 0.12455632138 -0.50840819388 0.85206034481 
0.025980273663 -0.44978902437 0.8927568868 -0.059074280284 -0.37129988613 0.92663187079 -0.13344493625 -0.27592322405 0.95187122208 
-0.19826567353 -0.16721863542 0.96577877936 -0.25367299555 -0.05011730881 0.96599082122 -0.29913832746 0.069243879039 0.95169404026 
-0.3342598524 0.18435424657 0.9242747767 -0.35895472381 0.2896238807 0.8872820938 -0.37370265339 0.38129450301 0.84555356355 
-0.37872483831 0.45786058739 0.80432032137 -0.37321836467 0.51978678188 0.76845933767 -0.35263400599 0.56934601394 0.74262667218 
-0.30010032664 0.61110977337 0.73245111703 -0.13091172482 0.65273851317 0.74618667485 0.85111300482 0.34739823617 0.39360020138 
0.79538063446 -0.39859198407 -0.45661151602 0.67446452507 -0.47200765344 -0.56772033565 0.63094430862 -0.47408090134 -0.61413075025 
0.61159812686 -0.45386747368 -0.64803707267 0.60281145582 -0.42163217752 -0.67738073165 0.59988831001 -0.3817122312 -0.70315701524 
0.60208768956 -0.33639073632 -0.72410751039 0.61018489491 -0.2871280734 -0.73839817409 0.62666791994 -0.23410310031 -0.74329203987 
0.65482649598 -0.1761839343 -0.73495678884 0.69956418329 -0.10958798055 -0.7061164408 0.7627371017 -0.029342406899 -0.64604267417 
0.83905078662 0.069502055009 -0.53959544274 0.90641378545 0.18271135684 -0.38082884558 0.93659574447 0.29201880894 -0.19368383169 
0.92514899809 0.37873410412 -0.0256867614 0.89263128651 0.44092693677 0.093770052683 0.8572505435 0.48750567945 0.16570974071 
0.82545173947 0.5267874219 0.2027916121 0.79652205317 0.56385205723 0.21822803754 0.76789508796 0.60108834896 0.2214270323 
0.73700319008 0.63942688842 0.21899669443 0.70186807777 0.67893415902 0.21547530977 0.66117893748 0.71909518723 0.21387969593 
0.61395781374 0.75904904842 0.21656487488 0.55968768722 0.79759128192 0.22493963585 0.49799011427 0.83328551307 0.24008560932 
0.42867028419 0.8644673323 0.26256050508 0.35212771528 0.88930882035 0.29178055825 0.26884994678 0.9059635985 0.32703159529 
0.17984683336 0.91270209928 0.36691960223 0.086590844872 0.90810378629 0.40969444578 -0.0094041535481 0.89099713374 0.45391152173 
-0.10705037758 0.86000491256 0.49893062346 -0.20574990276 0.81296570795 0.54475107638 -0.30641595152 0.74481929994 0.59275076979 
-0.41032826753 0.6459017297 0.64377144115 -0.51820950657 0.49687719023 0.6961120349 -0.62160302967 0.26868708115 0.73581038721 
-0.6877074831 -0.058447568637 0.72363132838 -0.66552316637 -0.42458124039 0.61384825921 -0.56350985497 -0.70279368165 0.43420926336 
-0.45061428362 -0.85397641848 0.26013658733 -0.3671368867 -0.92194157409 0.12342706506 -0.31785458429 -0.9479092326 0.02089377867 
-0.29731528968 -0.95310622755 -0.056499004633 -0.29999379642 -0.94699085344 -0.11494366274 -0.32200151626 -0.93355791418 -0.15743139585 
-0.36136894021 -0.91405087462 -0.1841832991 -0.41708655083 -0.88796102554 -0.19381441185 -0.4886869023 -0.85292693615 -0.18357764873 
-0.57424282858 -0.80466643273 -0.15085458516 -0.6682920407 -0.73778607439 -0.095170671793 -0.76061846887 -0.64885355683 -0.021180335263 
-0.83907367393 -0.54068477297 0.060127747336 -0.89583936441 -0.42347941428 0.13467374972 -0.93135765165 -0.30900730631 0.19258091642 
-0.95112591002 -0.20617315389 0.22989591971 -0.96129489639 -0.11789185073 0.24902536759 -0.96615656615 -0.044921244901 0.25401490397 
-0.96801296236 0.014129053331 0.25050204502 -0.96847544093 0.058681677572 0.242098701 -0.96808423807 0.090363930024 0.23376755153 
-0.96764978852 0.10858941666 0.22773279381 -0.96764978852 0.10858941666 0.22773279381 
FrenetBinormal 3 128 double
-0.093130454301 -0.98704525178 -0.13064604634 -0.093130454301 -0.98704525178 -0.13064604634 -0.086292151953 -0.98942820807 -0.11655679129 
-0.074862568381 -0.99293951046 -0.092014805482 -0.057958432598 -0.99687975275 -0.053587112776 -0.034158571206 -0.99940687349 0.0043695812944 
-0.0014728708133 -0.99591857202 0.090244271597 0.042311148852 -0.97576438652 0.21469426795 0.097734879155 -0.91762851072 0.38523474623 
0.1587213827 -0.79197597191 0.58956049951 0.20926917509 -0.58987974941 0.77990274624 0.23495512848 -0.35537415509 0.90471282598 
0.23740347266 -0.14767063517 0.96012133331 0.2269585851 0.0099746620759 0.97385332919 0.21159450075 0.12271340781 0.96962321899 
0.19526610095 0.20255609934 0.95960521906 0.17968544392 0.25940520666 0.94890572767 0.16570042119 0.29980968287 0.93949854948 
0.1541944601 0.32718446347 0.93229522971 0.14659745023 0.34253782052 0.92799624412 0.14576405157 0.34401017077 0.92758279613 
0.15724393048 0.32572468304 0.93229704343 0.19157470422 0.27450380024 0.94230928912 0.26696253337 0.16342095135 0.94974975569 
0.40075723348 -0.047126655035 0.91497143026 0.55666989159 -0.34126091669 0.75740320737 0.64175351441 -0.57179990416 0.5110746485 