# vtk DataFile Version 4.2
vtk output
ASCII
DATASET POLYDATA
POINTS 128 float
0 0 0 -0.333954 0.00744548 0.0563002 -0.979981 -0.029209 0.176099 
-1.49486 -0.178259 0.297392 -1.89145 -0.406279 0.416853 -2.29607 -0.658939 0.546535 
-2.70625 -0.929634 0.685293 -3.09216 -1.22238 0.829167 -3.4585 -1.53068 0.977686 
-3.81809 -1.84609 1.13098 -4.17448 -2.16556 1.28715 -4.52859 -2.48761 1.44343 
-4.88252 -2.81031 1.5956 -5.23981 -3.13244 1.73665 -5.60964 -3.45725 1.84656 
-5.99781 -3.78692 1.8971 -6.37961 -4.10856 1.8382 -6.72158 -4.40603 1.62536 
-7.00273 -4.67544 1.29346 -7.21115 -4.91927 0.901939 -7.36153 -5.15111 0.482039 
-7.4761 -5.38704 0.0527837 -7.56241 -5.63295 -0.377717 -7.6223 -5.89075 -0.805676 
-7.65748 -6.16202 -1.22795 -7.66941 -6.44804 -1.64174 -7.65794 -6.74891 -2.04487 
-7.62217 -7.06421 -2.43543 -7.56077 -7.39311 -2.81129 -7.47218 -7.73459 -3.17021 
-7.35424 -8.08729 -3.50933 -7.20443 -8.44956 -3.82529 -7.01947 -8.81905 -4.11293 
-6.7957 -9.19289 -4.36585 -6.5294 -9.56648 -4.57431 -6.21735 -9.93382 -4.72604 
-5.86094 -10.2835 -4.8015 -5.46589 -10.6007 -4.77832 -5.05566 -10.8667 -4.64425 
-4.66265 -11.0624 -4.39511 -4.31148 -11.1864 -4.05021 -4.02072 -11.2478 -3.64119 
-3.79284 -11.2602 -3.1912 -3.62117 -11.2389 -2.71772 -3.49941 -11.1953 -2.23105 
-3.42161 -11.138 -1.73704 -3.38243 -11.0746 -1.23929 -3.37694 -11.012 -0.740018 
-3.40065 -10.9568 -0.240472 -3.44932 -10.9159 0.258669 -3.51848 -10.8968 0.756688 
-3.60344 -10.9075 1.25272 -3.69896 -10.9568 1.74448 -3.79939 -11.0538 2.22848 
-3.89868 -11.205 2.69872 -3.99062 -11.4151 3.14734 -4.07021 -11.6832 3.56681 
-4.13355 -12.0039 3.9501 -4.17926 -12.3688 4.29457 -4.20805 -12.7673 4.60114 
-4.22142 -13.1905 4.87326 -4.2215 -13.6312 5.11632 -4.20984 -14.0839 5.33549 
-4.18747 -14.5449 5.53562 -4.15476 -15.0113 5.72099 -4.11143 -15.4812 5.89529 
-4.05667 -15.9526 6.0618 -3.98908 -16.4242 6.22336 -3.90672 -16.8941 6.38251 
-3.80712 -17.3609 6.5415 -3.68741 -17.8223 6.70228 -3.54434 -18.2759 6.86642 
-3.37461 -18.7185 7.03516 -3.1749 -19.1464 7.20936 -2.9428 -19.5551 7.38936 
-2.67691 -19.9401 7.57502 -2.37748 -20.297 7.7659 -2.04663 -20.6222 7.96132 
-1.68757 -20.9134 8.16073 -1.30475 -21.1695 8.36375 -0.902584 -21.3907 8.57033 
-0.485401 -21.5777 8.78082 -0.057146 -21.7314 8.99575 0.378731 -21.853 9.21589 
0.819066 -21.9435 9.44199 1.26105 -22.0038 9.67478 1.70211 -22.0353 9.91486 
2.13997 -22.0397 10.1627 2.57272 -22.0192 10.4184 2.99899 -21.977 10.6822 
3.41781 -21.9165 10.9542 3.82884 -21.8422 11.2345 4.23212 -21.7589 11.5233 
4.62827 -21.6719 11.8208 5.01808 -21.5871 12.1271 5.40261 -21.5104 12.4422 
5.78273 -21.4479 12.7657 6.15895 -21.4056 13.097 6.53137 -21.3891 13.435 
6.89943 -21.4033 13.7778 7.26216 -21.4521 14.1233 7.61803 -21.5377 14.4687 
7.9654 -21.6612 14.8113 8.30252 -21.822 15.1487 8.62771 -22.0189 15.4786 
8.93944 -22.25 15.7991 9.23622 -22.5133 16.1087 9.51656 -22.8068 16.4064 
9.77885 -23.1284 16.6911 10.0213 -23.4762 16.9621 10.2421 -23.8485 17.2189 
10.4392 -24.2435 17.4606 10.6104 -24.6593 17.6867 10.754 -25.094 17.8958 
10.8683 -25.5456 18.0866 10.9529 -26.0113 18.2575 11.008 -26.4886 18.4068 
11.0359 -26.9754 18.5326 11.0392 -27.4691 18.6333 11.0222 -27.9654 18.7086 
10.9895 -28.4625 18.7577 10.9478 -28.9669 18.7764 10.9028 -29.4783 18.7639 
10.857 -29.9664 18.7321 10.8149 -30.426 18.6837 10.7924 -30.9705 18.5768 
10.7979 -31.6076 18.4058 10.8066 -31.9286 18.3113 
LINES 1 129
128 0 1 2 3 4 5 6 7 8 9 10 11 12 13 14 15 16 17 18 19 20 21 22 23 24 25 26 27 28 29 30 31 32 33 34 35 36 37 38 39 40 41 42 43 44 45 46 47 48 49 50 51 52 53 54 55 56 57 58 59 60 61 62 63 64 65 66 67 68 69 70 71 72 73 74 75 76 77 78 79 80 81 82 83 84 85 86 87 88 89 90 91 92 93 94 95 96 97 98 99 100 101 102 103 104 105 106 107 108 109 110 111 112 113 114 115 116 117 118 119 120 121 122 123 124 125 126 127 

CELL_DATA 1
FIELD FieldData 2
Length 1 1 double
59.087742161 
Tortuosity 1 1 double
0.54033094509 
POINT_DATA 128
SCALARS MaximumInscribedSphereRadius float
LOOKUP_TABLE default
0.9796 0.963623 0.947646 1.00697 1.07254 1.20211 1.33335 1.39933 1.46188 
1.47267 1.47971 1.37388 1.2576 1.14796 1.03907 1.02594 1.02575 1.017 
1.00696 0.993076 0.978602 1.07726 1.1957 1.22554 1.23777 1.24 1.24 
1.24 1.24 1.27846 1.32752 1.40861 1.49942 1.5784 1.65347 1.6443 
1.60499 1.5696 1.53572 1.67573 1.88412 1.86958 1.76398 1.68876 1.62676 
1.60715 1.60738 1.6634 1.74757 1.75169 1.71227 1.6515 1.57823 1.56192 
1.58131 1.64409 1.73585 1.75918 1.73396 1.72611 1.73139 1.87263 2.12365 
2.21818 2.17743 2.04616 1.83107 1.76372 1.8429 1.93025 2.02627 1.98679 
1.79307 1.62663 1.49341 1.3991 1.3554 1.40683 1.5904 1.75606 1.89514 
1.9887 2.00984 1.92288 1.65126 1.43446 1.31834 1.28492 1.4152 1.53781 
1.64401 1.74001 1.81238 1.86618 1.87321 1.87779 1.87564 1.87229 1.86533 
1.86 1.86 1.86 1.86 1.86 1.86 1.86 1.86 1.86 
1.86 1.86 1.86 1.86 1.86 1.86707 1.92719 1.99782 2.16189 
2.30678 2.24431 2.17396 1.99614 1.8227 1.73072 1.64127 1.65613 1.67742 
1.76871 1.86 
TEXTURE_COORDINATES TCoords 2 float
0 0 0.00787402 0 0.015748 0 0.023622 0 0.0314961 
0 0.0393701 0 0.0472441 0 0.0551181 0 0.0629921 0 
0.0708661 0 0.0787402 0 0.0866142 0 0.0944882 0 0.102362 
0 0.110236 0 0.11811 0 0.125984 0 0.133858 0 
0.141732 0 0.149606 0 0.15748 0 0.165354 0 0.173228 
0 0.181102 0 0.188976 0 0.19685 0 0.204724 0 
0.212598 0 0.220472 0 0.228346 0 0.23622 0 0.244094 
0 0.251969 0 0.259843 0 0.267717 0 0.275591 0 
0.283465 0 0.291339 0 0.299213 0 0.307087 0 0.314961 
0 0.322835 0 0.330709 0 0.338583 0 0.346457 0 
0.354331 0 0.362205 0 0.370079 0 0.377953 0 0.385827 
0 0.393701 0 0.401575 0 0.409449 0 0.417323 0 
0.425197 0 0.433071 0 0.440945 0 0.448819 0 0.456693 
0 0.464567 0 0.472441 0 0.480315 0 0.488189 0 
0.496063 0 0.503937 0 0.511811 0 0.519685 0 0.527559 
0 0.535433 0 0.543307 0 0.551181 0 0.559055 0 
0.566929 0 0.574803 0 0.582677 0 0.590551 0 0.598425 
0 0.606299 0 0.614173 0 0.622047 0 0.629921 0 
0.637795 0 0.645669 0 0.653543 0 0.661417 0 0.669291 
0 0.677165 0 0.685039 0 0.692913 0 0.700787 0 
0.708661 0 0.716535 0 0.724409 0 0.732283 0 0.740157 
0 0.748031 0 0.755906 0 0.76378 0 0.771654 0 
0.779528 0 0.787402 0 0.795276 0 0.80315 0 0.811024 
0 0.818898 0 0.826772 0 0.834646 0 0.84252 0 
0.850394 0 0.858268 0 0.866142 0 0.874016 0 0.88189 
0 0.889764 0 0.897638 0 0.905512 0 0.913386 0 
0.92126 0 0.929134 0 0.937008 0 0.944882 0 0.952756 
0 0.96063 0 0.968504 0 0.976378 0 0.984252 0 
0.992126 0 1 0 
FIELD FieldData 7
Curvature 1 128 double
0 0.027247326783 0.04872971669 0.065243231405 0.075668866579 0.080048306913 0.07977872456 0.07775269625 0.078250566583 
0.08584953727 0.103063082 0.12951541619 0.16326107741 0.20135716855 0.23934508889 0.27098081705 0.28960030812 0.29098039246 
0.27579228065 0.24928028149 0.2185297894 0.18971697159 0.16681239907 0.15164045427 0.14433746033 0.14398885952 0.14936000164 
0.15951331212 0.17407447981 0.1932763757 0.21778916757 0.24858814034 0.28667048932 0.33245702713 0.38480939785 0.43952794864 
0.48821169666 0.51928599121 0.52263463186 0.49571081135 0.44537399385 0.38341536484 0.32052568818 0.26328631724 0.21457176329 
0.17518649826 0.14540647131 0.12579989913 0.11702821863 0.11865621858 0.12846026859 0.14313858673 0.15951448279 0.17481248255 
0.18672032202 0.19351577865 0.19422263049 0.1888473957 0.17823632198 0.16384942484 0.14733631382 0.13027634145 0.1140089285 
0.099693584949 0.0883474077 0.080874978686 0.077891611936 0.079410708127 0.084771957469 0.092928234656 0.10278844689 0.11339804346 
0.12392385886 0.13362503918 0.14190005428 0.14823641905 0.1523126327 0.15401168273 0.15337380538 0.15064973881 0.14617159753 
0.14028208553 0.13325027543 0.1253108179 0.11657892547 0.10709853462 0.096845481509 0.085917432241 0.074383762348 0.062565292841 
0.051111936088 0.041433111004 0.03613124231 0.037914752573 0.046315744172 0.058480084799 0.072174556085 0.086118882997 0.09951875205 
0.11178263671 0.12253964947 0.13151938545 0.13868762324 0.144046297 0.14786846852 0.15038848478 0.15191448328 0.15275482114 
0.15308130746 0.15301186525 0.15251776845 0.15150058232 0.14978484051 0.14719315033 0.14356644583 0.13884489798 0.13308465047 
0.12636002839 0.11880758515 0.11046102794 0.10127078179 0.091005154488 0.079324592826 0.066005969841 0.050932091301 0.034256050542 
0.016383321766 0 
Torsion 1 128 double
0 0 -0.035957738443 -0.061517839224 -0.10333965096 -0.17113795919 -0.27567658258 -0.41326547241 -0.52754723884 
-0.52064554228 -0.39504433833 -0.24799948505 -0.13291883141 -0.052640224855 0.0035217153093 0.045791148223 0.081756180971 0.11703875874 
0.15582177547 0.20071015537 0.25180658004 0.30406794415 0.3452637234 0.3589512176 0.33595963363 0.28392601447 0.22129076358 
0.16383452551 0.1192992363 0.089223601466 0.072043660528 0.06510487448 0.065464882258 0.070682770479 0.078569624735 0.087871093543 
0.097771914174 0.10829597655 0.1202057499 0.13444564509 0.15228558113 0.17540676655 0.20656700898 0.24969099557 0.31024548062 
0.39398069908 0.49859612282 0.59794962942 0.63558244137 0.57859710651 0.46610488748 0.35417107321 0.26643574742 0.20368837171 
0.16036480313 0.13125834475 0.11291066772 0.10339280289 0.10214190512 0.10958588521 0.12714438397 0.15714221216 0.2020419634 
0.26178289119 0.32947592539 0.38534416491 0.40209932632 0.3693177909 0.30503379799 0.23596291176 0.17780786202 0.13459104604 
0.10474295511 0.085508978616 0.074251598149 0.068772036844 0.067683242576 0.069953113203 0.074423983991 0.08051752719 0.087778367515 
0.095415983526 0.10346733163 0.11208017354 0.1219650545 0.1348186687 0.15341770645 0.1824719522 0.23109095649 0.31626436221 
0.46744076799 0.71324368308 0.95088234716 0.87887935464 0.59869556754 0.37804759662 0.2465316691 0.16880982003 0.11993770699 
0.087315931961 0.063807798665 0.046039732325 0.031719895248 0.019812303867 0.010252343596 0.0023840783991 -0.0030212880431 -0.0054874525061 
-0.0048226693809 -0.00040710754458 0.007657410782 0.019546095013 0.034883376615 0.053106729907 0.07363868325 0.095396282969 0.11684780803 
0.13628327659 0.15100010782 0.15863229662 0.15802403344 0.14859501122 0.13163844474 0.10936630172 0.08409636319 0.058645817616 
0 0 
Abscissas 1 128 double
0 0.5029424322 1.0058848644 1.5088235588 2.0117619429 2.5147030064 3.0176441401 3.5205828707 4.0235214749 
4.5264629832 5.0294047022 5.5323445562 6.0352842376 6.5382250777 7.0411660495 7.5441048806 8.0470434228 8.5499848001 
9.0529266051 9.555867833 10.058808972 10.561749495 11.064689912 11.567632431 12.070575368 12.573511662 13.076446473 
13.579386881 14.082328682 14.585268269 15.088207245 15.591147523 16.094088195 16.597030724 17.099973867 17.602917577 
18.105861491 18.608807786 19.111754988 19.614697056 20.117637105 20.620575945 21.123514293 21.626452863 22.129391529 
22.63233278 23.13527524 23.638218604 24.141162424 24.64410358 25.147043286 25.649980968 26.152917466 26.655858924 
27.158803491 27.661748797 28.164694596 28.667643853 29.170595564 29.673523536 30.17643358 30.679358837 31.182296377 
31.685250768 32.188219727 32.691179711 33.194131384 33.697078471 34.20002101 34.702942816 35.205842595 35.708765699 
36.211715351 36.714667235 37.217621836 37.720569884 38.223509408 38.726450794 39.229394766 39.732338738 40.23528271 
40.738219924 41.241146382 41.74407818 42.247019098 42.749959417 43.252898638 43.755834692 44.258764474 44.761699943 
45.264647568 45.767599484 46.270561337 46.77350769 47.276415033 47.779333101 48.282280614 48.785230602 49.288188016 
49.791139068 50.294069206 50.797001317 51.299940567 51.802876333 52.305798185 52.808725458 53.311676818 53.814628364 
54.317580833 54.820531245 55.323470055 55.826408343 56.329343263 56.832279462 57.335225251 57.8381718 58.3411251 
58.84407629 59.34700468 59.849933684 60.35287105 60.855807358 61.358723951 61.861641626 62.364603937 62.867564737 
63.370509095 63.873453453 
ParallelTransportNormals 3 128 double
0.17800112729 0 0.98403028342 0.2136783071 0.0079636979845 0.97610028778 0.24935548692 0.015927395969 0.96817029213 
0.27075432285 0.026467475166 0.96200877733 0.2909681562 0.037221375966 0.95599403406 0.3059549757 0.047922249319 0.95064354088 
0.32080490783 0.058621733965 0.94531044337 0.33014154944 0.066417906261 0.94150884976 0.3391881141 0.074061323321 0.93778783488 
0.33970713932 0.074494793935 0.93757643167 0.3396077223 0.074405378033 0.93761955581 0.3177528442 0.054764072873 0.94599727604 
0.29388536817 0.033314022248 0.95514602984 0.19759248332 -0.050123107523 0.96903703868 0.093068936805 -0.14060465284 0.98346697299 
-0.090934014614 -0.30221660458 0.90879059395 -0.28566585256 -0.47343041558 0.82208579666 -0.37920644313 -0.56979493184 0.7108877169 
-0.45748011837 -0.65486679309 0.59599428919 -0.47783640709 -0.68393044517 0.54963276828 -0.48923151348 -0.70432830958 0.51387474572 
-0.49158398575 -0.70976432047 0.50452865344 -0.49235461915 -0.71258303631 0.49980283193 -0.49227865478 -0.71010815372 0.50335784581 
-0.49203444003 -0.70658123674 0.50855856884 -0.4924183138 -0.70136405629 0.51529846681 -0.49294253111 -0.69576919411 0.52238228643 
-0.49410551232 -0.69029676037 0.52847546295 -0.49542764505 -0.68485483034 0.53432181532 -0.49707580475 -0.6802612139 0.53863201338 
-0.49881386454 -0.67590151514 0.54251862558 -0.50095057654 -0.67191589925 0.54548271237 -0.50320815749 -0.66804370306 0.54816709498 
-0.50863992353 -0.66120310044 0.55135039423 -0.51512233032 -0.65337996887 0.55469883261 -0.53485255692 -0.63622008223 0.55515659002 
-0.55932221026 -0.61571995793 0.55458020212 -0.60166990582 -0.59069063751 0.53427588769 -0.6508300217 -0.56393546885 0.50645425529 
-0.69673816199 -0.5476967228 0.45784106721 -0.7413673796 -0.53559382924 0.40105106744 -0.77180464295 -0.53283036428 0.34115143603 
-0.79644523478 -0.53388156775 0.27998168264 -0.81122667414 -0.53835093868 0.22107000477 -0.82171709624 -0.54430800497 0.16314111331 
-0.82610894442 -0.55073520739 0.1064041658 -0.82764478836 -0.55738257781 0.050225413867 -0.82493269018 -0.56256206692 -0.0065541882716 
-0.82007597657 -0.56700048169 -0.063637135557 -0.81211375551 -0.56763852605 -0.1224822354 -0.80246238836 -0.56620947479 -0.18228580441 
-0.79104286847 -0.55789220632 -0.24362495132 -0.77858902296 -0.54554550117 -0.30586237334 -0.76664621761 -0.52452737459 -0.36540907145 
-0.75502375803 -0.49807356338 -0.42326908802 -0.74610439823 -0.46665482474 -0.47215900936 -0.73899117106 -0.43191866605 -0.51505537407 
-0.73460793384 -0.39937477007 -0.54729612216 -0.73216194719 -0.36838654361 -0.57197545072 -0.73106267423 -0.34343411182 -0.58919186033 
-0.73098052352 -0.32304028894 -0.6007718077 -0.73117465241 -0.3090573166 -0.60810517589 -0.73159185163 -0.30025051567 -0.61200982246 
-0.73164712415 -0.29765104846 -0.61326123443 -0.73138947954 -0.30041836106 -0.61221869434 -0.73012305393 -0.30956307937 -0.60900731798 
-0.72792264549 -0.32461233739 -0.6037879182 -0.72367573434 -0.34652288663 -0.59622456596 -0.71739911784 -0.37523841079 -0.5863365 
-0.70743608619 -0.4108338874 -0.57363394727 -0.69355670038 -0.45373845137 -0.55794135505 -0.67386745297 -0.50231949149 -0.53898957078 
-0.64756514662 -0.55736176494 -0.51632802016 -0.61425731743 -0.61439015917 -0.49080396479 -0.57242031022 -0.67383664242 -0.46179482869 
-0.52508629776 -0.7304053222 -0.43141977927 -0.4706031346 -0.78323126392 -0.39926828617 -0.41406814825 -0.83038971125 -0.36734476775 
-0.35468291771 -0.86967528579 -0.33573793522 -0.29563094897 -0.90355545056 -0.30488454427 -0.23707393028 -0.92940766902 -0.27515014128 
-0.17955288916 -0.95114126747 -0.24590998065 -0.12368017477 -0.96632179787 -0.21745620087 -0.069118261913 -0.97839086789 -0.18923479544 
-0.016795464426 -0.9851449313 -0.16141033263 0.033183630992 -0.98957969185 -0.13419051834 0.07885743868 -0.98975398509 -0.10808141942 
0.12079984223 -0.98868265311 -0.083484206521 0.155356638 -0.98514584192 -0.061879485665 0.18510432897 -0.9816252773 -0.042887167044 
0.20456887565 -0.97813945217 -0.029480858762 0.21866751408 -0.97559862931 -0.019735698028 0.22033752703 -0.97524663991 -0.01847056147 
0.21673839731 -0.97586945655 -0.021521183536 0.1998794412 -0.97894537797 -0.035432435835 0.17849343753 -0.98199141296 -0.053624502968 
0.14467741997 -0.98495538808 -0.083570497389 0.10767023109 -0.98637530914 -0.11691941901 0.061085311823 -0.98316102785 -0.16048161844 
0.013297752892 -0.97738770591 -0.20563122173 -0.038444188076 -0.96320003949 -0.25600034465 -0.089708307503 -0.94657328554 -0.30623147648 
-0.13924482699 -0.92112782603 -0.35596369108 -0.18766932615 -0.89386850593 -0.40483561116 -0.23165261186 -0.85936494588 -0.45027166639 
-0.27447499474 -0.82356386082 -0.49477143654 -0.31213900816 -0.78199733771 -0.53511090643 -0.34877708905 -0.73936920411 -0.57469438426 
-0.38030568149 -0.69145389386 -0.61051276773 -0.41090094841 -0.64254086587 -0.64575331613 -0.43623558316 -0.58800426287 -0.67773693247 
-0.46064668668 -0.53252205456 -0.70921140639 -0.4790951509 -0.47093468915 -0.73739867955 -0.49660173842 -0.40874139306 -0.76497094869 
-0.50704088226 -0.3420014499 -0.78792848824 -0.51669253513 -0.27525183543 -0.81015449083 -0.51934858332 -0.20841630672 -0.82588195105 
-0.52156031314 -0.1420325002 -0.84093501665 -0.51897111373 -0.080529622457 -0.84870114309 -0.51626522397 -0.019644897791 -0.85598784363 
-0.51196862295 0.032813225161 -0.85673905765 -0.50773551709 0.084563190909 -0.85726425542 -0.50468663895 0.12310554659 -0.8535740977 
-0.50168882042 0.16150110918 -0.84980948403 -0.50079788436 0.19383952169 -0.84297258097 -0.49998196317 0.22345511038 -0.83671133024 
-0.49998196317 0.22345511038 -0.83671133024 -0.49998196317 0.22345511038 -0.83671133024 
FrenetTangent 3 128 double
-0.90423287066 -0.35164728233 0.24229548995 -0.90423287066 -0.35164728233 0.24229548995 -0.89685209707 -0.36834476104 0.24490498768 
-0.88529046646 -0.39324636697 0.24822990324 -0.87024835678 -0.42380676942 0.25110878062 -0.85283093938 -0.45729775608 0.25210741982 
-0.83446318523 -0.49129158953 0.24960722455 -0.8166516005 -0.52400813126 0.24185872278 -0.80066933638 -0.55443778863 0.22699637071 
-0.78725630397 -0.58224015676 0.20303672505 -0.77638021691 -0.60748683818 0.16790920235 -0.76706548334 -0.63032599762 0.11958127355 
-0.75728907796 -0.65064337431 0.056360020079 -0.7440016454 -0.66779724142 -0.022547638205 -0.72342612552 -0.6805490947 -0.11622207459 
-0.69182550436 -0.68734469545 -0.2212119824 -0.64672065898 -0.68701669325 -0.33130115069 -0.58805222371 -0.67964448019 -0.43849511142 
-0.51845116005 -0.66697990094 -0.53511326501 -0.44225523366 -0.65203381191 -0.61584268805 -0.36390946267 -0.63808752703 -0.67853828988 
-0.28673673836 -0.62779382369 -0.72364145667 -0.2125334279 -0.6227603254 -0.75299343897 -0.14177220083 -0.62357513446 -0.76880081605 
-0.07401808209 -0.63004413624 -0.77302374473 -0.0083243967122 -0.64145600473 -0.76711465793 0.05647412103 -0.65679358354 -0.75195269949 
0.12156319891 -0.67487844396 -0.72784715054 0.18800911498 -0.69444502196 -0.6945492669 0.25664501088 -0.71414779284 -0.65124977418 
0.32793934891 -0.73250097131 -0.59657196588 0.40181166548 -0.74775386255 -0.52859393349 0.4773661704 -0.75772018852 -0.44495129539 
0.55250686114 -0.75959637163 -0.34314650021 0.62347375532 -0.74989446759 -0.22122107474 0.68451920681 -0.72470719139 -0.078948985166 
0.72819205943 -0.68062212469 0.080559592628 0.74685888371 -0.61635584104 0.24961427249 0.73546718277 -0.53444902293 0.41647600767 
0.69412473974 -0.44162011476 0.56847385157 0.62842099444 -0.34693731961 0.69621946972 0.5470782093 -0.25892345766 0.79603019791 
0.4588314656 -0.18355714669 0.86935634815 0.37046734589 -0.12395473897 0.9205374345 0.28640219991 -0.081101803287 0.95467076911 
0.20912275996 -0.054790712126 0.97635323993 0.13983261358 -0.044320976829 0.98918273903 0.07899443533 -0.048863571117 0.99567677014 
0.026698394575 -0.067604720196 0.99735490049 -0.017115317044 -0.099722832936 0.99486804276 -0.05254125851 -0.14427643051 0.98814155249 
-0.079664502185 -0.20003447944 0.97654481419 -0.098576912665 -0.26528906931 0.95911641733 -0.1094443594 -0.33773150332 0.9348579378 
-0.11259667286 -0.41444508324 0.90308209053 -0.10861208585 -0.49209554617 0.86373918994 -0.098349209287 -0.5672919406 0.81762294926 
-0.082896594885 -0.6370405875 0.76635986614 -0.063444290374 -0.69913283483 0.71217139881 -0.041116335586 -0.75233136112 0.65750054755 
-0.016824683942 -0.79632288064 0.6046377426 0.0088185417084 -0.83149782987 0.55545800223 0.035525809114 -0.85866332534 0.51130735435 
0.063305503129 -0.87878156355 0.47300674079 0.092396233475 -0.89277651749 0.44092292507 0.1231927655 -0.9014088869 0.41507295882 
0.15616776431 -0.90521387247 0.39522079206 0.19179063354 -0.90448224938 0.3809569706 0.23045338695 -0.89926909157 0.37176112947 
0.27239994942 -0.88942603725 0.36704167585 0.31766046075 -0.87465147741 0.36616475082 0.36599997285 -0.85455744808 0.36847739117 
0.41688763168 -0.82875222274 0.3733288843 0.4694907813 -0.79693740849 0.3800910065 0.52271743273 -0.7589982348 0.38818573531 
0.57529402934 -0.71507825311 0.39711443154 0.62587519882 -0.66562440071 0.40647803469 0.67317436671 -0.6113760738 0.41599948124 
0.7160743723 -0.55331857171 0.42553031801 0.75371923062 -0.49260143939 0.43503004873 0.78555879626 -0.43043675841 0.44454648196 
0.8113412867 -0.36802305081 0.45418537028 0.83108355453 -0.30650190499 0.4640654131 0.84502438845 -0.24693069616 0.47429844425 
0.85357879645 -0.19027756276 0.48497184181 0.85729526388 -0.13743924779 0.49614038708 0.85682063389 -0.089261984445 0.50782939998 
0.85287202917 -0.046531341987 0.52004243679 0.84620417481 -0.0099713496393 0.53276548942 0.83757222066 0.019755265689 0.54596932575 
0.82768712235 0.042067375476 0.55961090359 0.81717524757 0.056483751175 0.57361502823 0.80653433268 0.062631467655 0.58786024655 
0.7960983052 0.060261979257 0.60215943264 0.78601349548 0.049266335217 0.6162431445 0.77623103066 0.029688135961 0.6297491577 
0.76651580763 0.0017637605709 0.64222301874 0.75647447824 -0.034065862645 0.653135423 0.74559859151 -0.07714600359 0.66191482418 
0.7333164287 -0.12659331623 0.66799786503 0.71905728085 -0.18132411535 0.67087867163 0.7023031945 -0.24010421616 0.67016429954 
0.68263498939 -0.30162744449 0.66560525539 0.65975489085 -0.36459055271 0.6571127855 0.63348862609 -0.42777746294 0.64474692928 
0.60378182736 -0.49012445812 0.62866964338 0.57067653373 -0.55073140404 0.60911674945 0.5343019022 -0.60887951427 0.58633370567 
0.4948750423 -0.66400184049 0.5605356798 0.45270619562 -0.71564502353 0.53189218902 0.40822247798 -0.76343948966 0.50051428961 
0.36198593836 -0.80707317158 0.46647516134 0.31471441398 -0.84628642627 0.42983034135 0.26727888661 -0.88088033826 0.39065563663 
0.22067948076 -0.91073436493 0.34908950616 0.17599458301 -0.93582989665 0.30536586463 0.13429451127 -0.95626787365 0.25983983157 
0.096551308793 -0.97226621716 0.21301701278 0.06355032356 -0.98414845557 0.16556924162 0.03579685078 -0.99232648808 0.11835001699 
0.013459689113 -0.99728533387 0.072393367211 -0.0036373110806 -0.99957604917 0.028887573425 -0.015990683733 -0.9998132437 -0.010852454296 
-0.024346278973 -0.99866876882 -0.045474706064 -0.029582455324 -0.99684179692 -0.0736974236 -0.032568688265 -0.99500069174 -0.09440817747 
-0.03402099363 -0.99370218522 -0.10676394097 -0.03402099363 -0.99370218522 -0.10676394097 
FrenetNormal 3 128 double
0.39310787048 -0.90707475979 0.15060405812 0.39310787048 -0.90707475979 0.15060405812 0.40782944844 -0.90296217011 0.13540480173 
0.42871154518 -0.89696406852 0.10799014222 0.45161811186 -0.88997832714 0.063084532602 0.47059883602 -0.88230662379 -0.0084709598909 
0.47659843816 -0.8708031751 -0.12064725022 0.45551310669 -0.84255848109 -0.2874074035 0.39215925024 -0.77146220265 -0.50105607704 
0.29348925194 -0.64338996879 -0.70704554808 0.20113078614 -0.49128617461 -0.84745755144 0.15012948733 -0.3575645873 -0.92174221068 
0.14596214837 -0.25273713392 -0.95646170461 0.18060557597 -0.16849701594 -0.96901516064 0.24466130691 -0.095290676808 -0.96491477956 
0.32948747875 -0.027903877455 -0.94374751654 0.42696015962 0.033844841344 -0.90363684565 0.52948365054 0.086351102804 -0.84391382905 
0.63106145406 0.12385038994 -0.7657822942 0.72782889596 0.14032556656 -0.67124796728 0.81724518131 0.13075551209 -0.56126046509 
0.89561722841 0.092474885743 -0.4351070853 0.95583689105 0.027584903283 -0.29260025773 0.98889772281 -0.054289086201 -0.13832566265 
0.99048255794 -0.13664225691 0.016528642917 0.96617600762 -0.20289633755 0.15917599855 0.92776978964 -0.24372602364 0.28256121961 
0.88520041157 -0.25802795924 0.38709405007 0.84277890515 -0.24907008798 0.4771664367 0.80000981136 -0.2211268925 0.5577519154 
0.75376912894 -0.17777712161 0.63263527825 0.69987739024 -0.12147802191 0.7038570372 0.63392806058 -0.053682077565 0.77152669984 
0.5517974333 0.024778310404 0.8336099975 0.44996667098 0.11276694631 0.88589706559 0.32656331999 0.20801194672 0.92200185903 
0.18235878441 0.30571284879 0.9344971524 0.022418585718 0.39849395847 0.91689692555 -0.144194542 0.47713061834 0.86692231895 
-0.30644340002 0.5332977301 0.78847065491 -0.45517726472 0.56179005949 0.69080068525 -0.58575554115 0.56093124584 0.5850184471 
-0.69818427501 0.53068031554 0.48053836562 -0.79513869904 0.46994648671 0.38328155305 -0.87886226605 0.37455728295 0.29547920249 
-0.94747640624 0.2357137503 0.21616541706 -0.98897899098 0.042837968598 0.14172319448 -0.97671887434 -0.20362802521 0.06749716924 
-0.88234865516 -0.47052352573 -0.0082742048496 -0.71381838528 -0.69551409716 -0.081996667483 -0.52010998252 -0.8407508627 -0.1504114123 
-0.34419743441 -0.91388375871 -0.21527796385 -0.20008697181 -0.93884353446 -0.2802463586 -0.085240134794 -0.93385411485 -0.34734796904 
0.0071416055494 -0.90917581544 -0.41635121483 0.083143948364 -0.87033175479 -0.48539645699 0.14753431759 -0.82083866814 -0.55177668129 
0.20399645453 -0.76356989278 -0.61265525818 0.2559353336 -0.70114194452 -0.66550513045 0.30685300762 -0.63576319023 -0.70827000336 
0.3608050651 -0.56881337295 -0.73910151654 0.42240050051 -0.50039009015 -0.75576952496 0.49671536711 -0.42878764677 -0.75459591707 
0.58741554698 -0.35034964602 -0.72951908865 0.69323998964 -0.26019034144 -0.67210066432 0.80300545105 -0.15521330441 -0.5754051405 
0.89534515091 -0.039230938434 -0.44364174083 0.95158442027 0.076369943305 -0.29774942967 0.96975695221 0.18068163243 -0.16409022316 
0.9610235692 0.27022822146 -0.058398696617 0.9374434982 0.34770742271 0.017298435738 0.9062138543 0.41735116046 0.067782439735 
0.87021004077 0.48254000263 0.099446622913 0.83004452301 0.54513402581 0.11770719491 0.7853712007 0.60585048123 0.12703256084 
0.73576071332 0.66451189027 0.13069093476 0.68097915675 0.72044920042 0.1312262843 0.62105404401 0.7727872109 0.13073561522 
0.55630450977 0.82060436292 0.13089603496 0.48740768086 0.86302194341 0.13276625261 0.41500348541 0.89937359438 0.13747452426 
0.3399506118 0.92910817411 0.14557328857 0.26313683971 0.95183020209 0.15741114945 0.18529459072 0.96725461647 0.17344861363 
0.1071153141 0.97512439641 0.19405855049 0.028869723465 0.97502441614 0.22021336698 -0.049644706191 0.96604366973 0.25356464918 
-0.12947360389 0.94606296551 0.29698729129 -0.21293175043 0.91020027841 0.35524009183 -0.30406443671 0.84711942864 0.4358135977 
-0.40769884821 0.73031811193 0.54810318788 -0.5191116289 0.50462359817 0.68983921381 -0.59103740466 0.10781141707 0.79940695809 
-0.54674694517 -0.35491132593 0.75835725662 -0.43259420383 -0.66828036125 0.60519716918 -0.33599521167 -0.82572954557 0.45307608114 
-0.27625239823 -0.90184916789 0.332193755 -0.24590087489 -0.94018370046 0.2357697375 -0.2368473137 -0.95910157646 0.15500811598 
-0.24324414169 -0.96632982301 0.083898514279 -0.26100952433 -0.96515130647 0.018894015496 -0.2874029635 -0.95690374727 -0.041650390539 
-0.32003089616 -0.94224440495 -0.098770981765 -0.35735034156 -0.92144219664 -0.15246314847 -0.39769839867 -0.89479453927 -0.20292539562 
-0.43966938796 -0.86259672064 -0.2502353429 -0.48222451304 -0.82514772925 -0.29426305229 -0.52370418014 -0.7829253274 -0.33580033267 
-0.56298436096 -0.73636623302 -0.3752510895 -0.59848673989 -0.68605941352 -0.41368599601 -0.62884408422 -0.63261828894 -0.45205001741 
-0.65262939841 -0.57672806389 -0.49138539727 -0.66836791801 -0.51912262166 -0.53272509782 -0.67478369194 -0.46050772501 -0.57671449115 
-0.67057352336 -0.40157458863 -0.62375395754 -0.65459565547 -0.34294222871 -0.67371741525 -0.6260345592 -0.28513318932 -0.72579597343 
-0.58468176828 -0.22860174873 -0.77838838013 -0.53114361032 -0.1738098959 -0.8292626757 -0.46791030421 -0.12128566836 -0.87541403568 
-0.3985486274 -0.071751000827 -0.91433625405 -0.32783296278 -0.026099340076 -0.94437512301 -0.26104350229 0.014651961177 -0.96521583594 
-0.20252490586 0.049472062191 -0.97802667529 -0.15561496607 0.077423663054 -0.98477893902 -0.12233591407 0.097716642825 -0.98766663498 
-0.10331957986 0.10975035238 -0.98857469347 -0.10331957986 0.10975035238 -0.98857469347 
FrenetBinormal 3 128 double
0.16682061559 0.23142940389 0.95844212826 0.16682061559 0.23142940389 0.95844212826 0.17126428981 0.22131754643 0.96004535657 
0.18018657284 0.20202166876 0.96266299623 0.19674572055 0.16830448421 0.96590098977 0.22630979736 0.11141716164 0.96766217851 
0.276631743 0.018286724662 0.96080199545 0.35438393452 -0.12454189787 0.92676930389 0.45292354347 -0.31216151015 0.83511403733 
0.54230210294 -0.49703696837 0.67739403689 0.59731077812 -0.62417756774 0.50360917214 0.62375610722 -0.68908395906 0.36890597186 
0.63655974083 -0.71609157278 0.28636437585 0.64330644142 -0.72502110312 0.24596996252 0.64559699954 -0.7264796051 0.23543979604 
0.64250717728 -0.72579517997 0.24577608483 0.63202643247 -0.72585300848 0.27144059891 0.61142591211 -0.72844139612 0.30908168242 
0.57703538526 -0.73471007388 0.35669492778 0.52409484495 -0.74509103034 0.41250933322 0.44685592376 -0.75878014201 0.47389078857 
0.34007620182 -0.77286694226 0.53574701727 0.2029910829 -0.78192624346 0.58939457925 0.044518949914 -0.7798761099 0.6243487137 