# vtk DataFile Version 4.2
vtk output
ASCII
DATASET POLYDATA
POINTS 127 float
0 0 0 -0.273251 0.167499 0.0940258 -0.821873 0.484778 0.272834 
-1.30595 0.720223 0.407983 -1.72895 0.879862 0.507105 -2.18303 1.03001 0.612242 
-2.66452 1.16585 0.724165 -3.14788 1.26631 0.834056 -3.63172 1.32819 0.942582 
-4.12042 1.35283 1.05254 -4.61093 1.3375 1.16303 -5.09809 1.27886 1.27224 
-5.57819 1.17746 1.37977 -6.04812 1.0355 1.48606 -6.50539 0.857194 1.59349 
-6.94791 0.647541 1.70535 -7.37467 0.411906 1.8261 -7.78521 0.155749 1.96042 
-8.17989 -0.115781 2.11102 -8.55961 -0.397813 2.2794 -8.92675 -0.686514 2.46375 
-9.28451 -0.978748 2.66041 -9.63728 -1.27323 2.86247 -9.98997 -1.56964 3.06144 
-10.3472 -1.86883 3.24829 -10.7135 -2.17262 3.41118 -11.0916 -2.48684 3.51631 
-11.4797 -2.8174 3.52028 -11.8378 -3.15241 3.39413 -12.1097 -3.4723 3.1228 
-12.2762 -3.77455 2.74742 -12.3386 -4.06675 2.33676 -12.3017 -4.3644 1.93294 
-12.1716 -4.68568 1.56389 -11.9566 -5.03266 1.26572 -11.6672 -5.39742 1.07611 
-11.3284 -5.76599 0.998819 -10.9719 -6.12215 1.01633 -10.6132 -6.46406 1.09989 
-10.2573 -6.79868 1.21504 -9.90455 -7.13317 1.33944 -9.55302 -7.47506 1.45635 
-9.20916 -7.83601 1.52077 -8.88682 -8.22715 1.47034 -8.62205 -8.61436 1.27018 
-8.4636 -8.93467 0.911351 -8.41846 -9.17386 0.46068 -8.46231 -9.35168 0.025839 
-8.5448 -9.48089 -0.4428 -8.60695 -9.57006 -1.07942 -8.72951 -9.64755 -1.59606 
-9.05503 -9.74421 -1.44597 -9.16367 -9.73503 -0.960656 -9.0037 -9.61511 -0.470831 
-8.88571 -9.48745 0.0171462 -8.86989 -9.37253 0.502538 -8.88111 -9.2465 0.986736 
-8.91051 -9.11001 1.4696 -8.99045 -8.97964 1.9495 -9.14016 -8.87625 2.41901 
-9.36831 -8.82329 2.86651 -9.66397 -8.84374 3.27587 -10.0025 -8.95848 3.62931 
-10.3542 -9.16498 3.92737 -10.6873 -9.4444 4.1835 -10.9841 -9.78066 4.41093 
-11.2375 -10.1601 4.62223 -11.4425 -10.572 4.82522 -11.5955 -11.0078 5.02395 
-11.6951 -11.4599 5.22021 -11.742 -11.9212 5.41399 -11.7393 -12.3863 5.60458 
-11.6927 -12.8505 5.7908 -11.6099 -13.3115 5.9721 -11.5005 -13.7688 6.14853 
-11.3741 -14.2231 6.32076 -11.2394 -14.6761 6.49002 -11.1029 -15.1292 6.65759 
-10.9682 -15.5829 6.82477 -10.8365 -16.0372 6.99311 -10.7069 -16.4909 7.16437 
-10.5768 -16.9424 7.34106 -10.4416 -17.389 7.52653 -10.2951 -17.826 7.72557 
-10.129 -18.2468 7.94464 -9.93448 -18.6397 8.19104 -9.70247 -18.9865 8.47284 
-9.43138 -19.2679 8.79227 -9.12939 -19.4632 9.14375 -8.80799 -19.5661 9.51807 
-8.48214 -19.5893 9.90189 -8.16041 -19.5505 10.2858 -7.84195 -19.4716 10.6664 
-7.52383 -19.3708 11.0414 -7.20102 -19.2603 11.4097 -6.86892 -19.1485 11.7692 
-6.52388 -19.0399 12.1174 -6.16359 -18.9361 12.4514 -5.78781 -18.835 12.7687 
-5.39714 -18.7339 13.0675 -4.99325 -18.6303 13.3473 -4.57799 -18.5227 13.6082 
-4.15325 -18.4116 13.8518 -3.72085 -18.2984 14.0804 -3.28235 -18.1856 14.2973 
-2.8394 -18.0755 14.5063 -2.39388 -17.97 14.7122 -1.94791 -17.8708 14.9202 
-1.50418 -17.7784 15.1361 -1.06551 -17.6937 15.3653 -0.634911 -17.6174 15.6119 
-0.214804 -17.5503 15.8787 0.193929 -17.4946 16.1651 0.591354 -17.4524 16.4691 
0.979434 -17.4271 16.7867 1.36072 -17.4223 17.1134 1.73856 -17.4438 17.4436 
2.11565 -17.4971 17.7717 2.49244 -17.5857 18.0912 2.86792 -17.7152 18.3966 
3.23792 -17.8987 18.6872 3.59542 -18.1404 18.9608 3.92593 -18.41 19.2071 
4.21906 -18.7028 19.4253 4.48455 -19.1302 19.6542 4.71162 -19.6981 19.8967 
4.81066 -19.9965 20.0144 
LINES 1 128
127 0 1 2 3 4 5 6 7 8 9 10 11 12 13 14 15 16 17 18 19 20 21 22 23 24 25 26 27 28 29 30 31 32 33 34 35 36 37 38 39 40 41 42 43 44 45 46 47 48 49 50 51 52 53 54 55 56 57 58 59 60 61 62 63 64 65 66 67 68 69 70 71 72 73 74 75 76 77 78 79 80 81 82 83 84 85 86 87 88 89 90 91 92 93 94 95 96 97 98 99 100 101 102 103 104 105 106 107 108 109 110 111 112 113 114 115 116 117 118 119 120 121 122 123 124 125 126 

CELL_DATA 1
FIELD FieldData 2
Length 1 1 double
54.506599113 
Tortuosity 1 1 double
0.89931297726 
POINT_DATA 127
SCALARS MaximumInscribedSphereRadius float
LOOKUP_TABLE default
1.55 1.4611 1.37219 1.28067 1.18891 1.10335 1.01804 1.02185 1.03147 
1.11561 1.20648 1.29847 1.3906 1.45772 1.52134 1.49018 1.44324 1.41661 
1.39395 1.39107 1.39265 1.41486 1.44239 1.4657 1.48777 1.38356 1.238 
1.12208 1.01689 1.03552 1.0997 1.14968 1.19417 1.21875 1.23505 1.24 
1.24 1.24 1.24 1.28071 1.34184 1.57009 1.89051 2.09039 2.21776 
2.1423 1.95116 1.93556 2.02406 2.09202 2.14646 1.92555 1.77388 1.68532 
1.64115 1.61434 1.64631 1.70608 1.78527 1.8744 1.98237 2.10076 2.26363 
2.45229 2.58347 2.67921 2.67054 2.59244 2.56596 2.57662 2.62295 2.69702 
2.70598 2.66018 2.59158 2.50217 2.41347 2.32549 2.23959 2.15592 2.07494 
1.99713 1.95955 1.97357 2.0212 2.11574 2.23152 2.37931 2.47608 2.49094 
2.45117 2.31776 2.22038 2.19025 2.15223 2.098 2.00503 1.82453 1.69131 
1.67613 1.68721 1.7711 1.83757 1.85019 1.85428 1.82868 1.79383 1.72248 
1.67357 1.72622 1.79895 1.97693 2.11703 2.02354 1.9258 1.79643 1.67538 
1.63075 1.59083 1.60665 1.62528 1.68977 1.74811 1.64685 1.54161 1.3908 
1.24 
TEXTURE_COORDINATES TCoords 2 float
0 0 0.00793651 0 0.015873 0 0.0238095 0 0.031746 
0 0.0396825 0 0.047619 0 0.0555556 0 0.0634921 0 
0.0714286 0 0.0793651 0 0.0873016 0 0.0952381 0 0.103175 
0 0.111111 0 0.119048 0 0.126984 0 0.134921 0 
0.142857 0 0.150794 0 0.15873 0 0.166667 0 0.174603 
0 0.18254 0 0.190476 0 0.198413 0 0.206349 0 
0.214286 0 0.222222 0 0.230159 0 0.238095 0 0.246032 
0 0.253968 0 0.261905 0 0.269841 0 0.277778 0 
0.285714 0 0.293651 0 0.301587 0 0.309524 0 0.31746 
0 0.325397 0 0.333333 0 0.34127 0 0.349206 0 
0.357143 0 0.365079 0 0.373016 0 0.380952 0 0.388889 
0 0.396825 0 0.404762 0 0.412698 0 0.420635 0 
0.428571 0 0.436508 0 0.444444 0 0.452381 0 0.460317 
0 0.468254 0 0.47619 0 0.484127 0 0.492063 0 
0.5 0 0.507937 0 0.515873 0 0.52381 0 0.531746 
0 0.539683 0 0.547619 0 0.555556 0 0.563492 0 
0.571429 0 0.579365 0 0.587302 0 0.595238 0 0.603175 
0 0.611111 0 0.619048 0 0.626984 0 0.634921 0 
0.642857 0 0.650794 0 0.65873 0 0.666667 0 0.674603 
0 0.68254 0 0.690476 0 0.698413 0 0.706349 0 
0.714286 0 0.722222 0 0.730159 0 0.738095 0 0.746032 
0 0.753968 0 0.761905 0 0.769841 0 0.777778 0 
0.785714 0 0.793651 0 0.801587 0 0.809524 0 0.81746 
0 0.825397 0 0.833333 0 0.84127 0 0.849206 0 
0.857143 0 0.865079 0 0.873016 0 0.880952 0 0.888889 
0 0.896825 0 0.904762 0 0.912698 0 0.920635 0 
0.928571 0 0.936508 0 0.944444 0 0.952381 0 0.960317 
0 0.968254 0 0.97619 0 0.984127 0 0.992063 0 
1 0 
FIELD FieldData 7
Curvature 1 127 double
0 0.024145069994 0.045160914002 0.064964719325 0.083122130305 0.099257402978 0.11304405567 0.1241901164 0.1324447752 
0.1376281515 0.1396700318 0.13864175593 0.13478332519 0.12846098558 0.12013297971 0.11030645601 0.099593169842 0.088891240351 
0.079851276402 0.075412902088 0.079505305066 0.094720946218 0.12092528626 0.15684816009 0.20117313055 0.2519772927 0.30564554361 
0.35626528406 0.39661601542 0.42077312864 0.42644996482 0.41480618649 0.38836737159 0.34911428834 0.29913173927 0.24142520312 
0.17967480676 0.11720526992 0.057479411708 0.02895789713 0.07796857926 0.13607619293 0.19109991522 0.23744819446 0.27003504123 
0.28663026447 0.2949461153 0.36150887403 0.87112599598 3.7439700721 13.834964439 6.3968915798 1.3158514982 0.33751766958 
0.084311747664 0.069578376703 0.11759841499 0.15807773626 0.19299095372 0.22313399192 0.24697237569 0.2623495918 0.268121246 
0.26491289397 0.25509294557 0.24148433505 0.22628719715 0.21060333736 0.19457460233 0.17793522661 0.16050424631 0.14243877314 
0.12424165691 0.10669153189 0.090759405409 0.077531068718 0.068324247502 0.06453001717 0.067191465347 0.076420855612 0.091550025662 
0.11169798553 0.13584354043 0.16254520441 0.1895074658 0.21356656244 0.23083945248 0.23796261714 0.23332100553 0.21790316715 
0.19482433272 0.16808016146 0.14132634371 0.11733762543 0.097801930895 0.083391686928 0.07380751716 0.067720261833 0.063404397292 
0.05923044828 0.054102975393 0.047552287066 0.039647466503 0.031015107786 0.023333262442 0.020185411625 0.024427706176 0.033307226571 
0.043656300886 0.054099317672 0.064278071122 0.074340650154 0.084699677496 0.095891437889 0.10813209374 0.12133960893 0.13480805931 
0.14720894673 0.1567325711 0.16120310107 0.15863313556 0.14773727171 0.12837661735 0.10156310213 0.06912559776 0.033217130638 
0 
Torsion 1 127 double
0 0 0.02245655097 0.030040265955 0.037349642173 0.044267867889 0.050872838565 0.057404590656 0.064037628412 
0.070710545602 0.076942094219 0.081594707609 0.08249119905 0.076215381 0.057606349527 0.019241205531 -0.049585221182 -0.16245040397 
-0.32428490319 -0.48661269116 -0.5209942118 -0.39171043071 -0.21828007159 -0.076676429563 0.028787782941 0.11196472695 0.18386591352 
0.25026978043 0.31221486628 0.3651661109 0.39963557638 0.40580386712 0.3798664629 0.32754472773 0.25854773513 0.17743257905 
0.071776789742 -0.13434612471 -1.0645673235 -4.5999876788 -0.6095509088 -0.20469090397 -0.13846094902 -0.16453331797 -0.28234579578 
-0.62260286078 -1.7070684474 -4.4041273144 -4.7215311165 -1.7801518319 -0.44058917229 -0.52563449303 -0.42525684136 0.7460916321 
4.9833237043 2.9650935072 0.57933801085 0.27695953926 0.21984639022 0.21714629064 0.23177076631 0.25340491649 0.27709446645 
0.2985430592 0.31266531185 0.3144730782 0.30187807625 0.27649017233 0.24320719841 0.20833188689 0.17751871321 0.15543856371 
0.14681895249 0.15742562206 0.19400718516 0.26092729166 0.34453200996 0.39564143242 0.36412054462 0.26988414514 0.1721203504 
0.10015114911 0.054484106613 0.02697364281 0.0097758459407 -0.0024929993451 -0.013385906624 -0.025573311938 -0.041289864147 -0.062791337767 
-0.092626113026 -0.13354120075 -0.18779247663 -0.25384359391 -0.32175789625 -0.36966668194 -0.37492167113 -0.33747845123 -0.28017937812 
-0.2311207264 -0.20656564216 -0.21860046561 -0.29001961524 -0.48113508903 -0.89394519917 -1.2263250527 -0.80196084709 -0.3618018571 
-0.13178704997 -0.0062733899084 0.071986271715 0.12221500899 0.15001309413 0.15759957014 0.1480517188 0.12650818416 0.099152350463 
0.071760457545 0.047752169657 0.028615727109 0.014676812551 0.0055269642676 9.6082659771e-05 -0.0025302762986 -0.0026051835413 0 
0 
Abscissas 1 127 double
0 0.5019918092 1.0039836184 1.5059773558 2.0079712686 2.5099605679 3.0119496849 3.5139395957 4.0159295584 
4.5179222008 5.0199150854 5.5219070915 6.023898997 6.525889587 7.0278799933 7.5298734874 8.0318674952 8.5338599005 
9.0358519935 9.5378438852 10.039835732 10.541826704 11.043817453 11.545810167 12.047803455 12.549785122 13.051762983 
13.553768465 14.055783947 14.557776536 15.059760705 15.561750604 16.063742715 16.565724784 17.067702678 17.569702181 
18.071711125 18.57371113 19.075707029 19.577691009 20.07966901 20.581655346 21.08364628 21.585639233 22.0876334 
22.589623858 23.091612201 23.593602563 24.095594122 24.597585067 25.099575609 25.60156731 26.10355827 26.605548855 
27.107540739 27.609533133 28.111525291 28.613517337 29.115509551 29.61750185 30.119491976 30.621480899 31.123464438 
31.625444853 32.127442362 32.629450413 33.131434067 33.633401492 34.135382155 34.637372341 35.139378538 35.641397184 
36.143414247 36.645429978 37.147420408 37.649387747 38.151367459 38.653359459 39.155358 39.657363613 40.159351575 
40.661318769 41.163291477 41.665271254 42.16726108 42.669264928 43.171262918 43.673252074 44.175242391 44.67723457 
45.179223576 45.681207142 46.183196563 46.685196914 47.187190377 47.689169713 48.191155951 48.693157791 49.19515333 
49.697133141 50.199119222 50.701122678 51.203123745 51.705117427 52.207107937 52.709087421 53.211069072 53.713059276 
54.215049526 54.717039985 55.21903182 55.721030867 56.223031508 56.725041979 57.227049965 57.729039523 58.231029342 
58.73302155 59.235013043 59.736996082 60.238979928 60.740976953 61.242973817 61.744966474 62.24695796 62.748936031 
63.250914103 
ParallelTransportNormals 3 127 double
0.31387586837 0 0.94946402736 0.28728261758 0.013425308167 0.95721571335 0.26068936678 0.026850616333 0.96496739934 
0.24804097461 0.031771723259 0.96815254532 0.23666113095 0.03591921232 0.97092227815 0.23130229677 0.037217391456 0.97215456783 
0.22618142627 0.038402959525 0.97332609433 0.2229317244 0.03871487595 0.97405959348 0.21980426171 0.038969718704 0.97476447731 
0.21614826114 0.038697790359 0.97558584155 0.21244451317 0.038378274218 0.97641772848 0.212284048 0.038403566752 0.97645306146 
0.21252899216 0.038468311022 0.97639725568 0.22368780303 0.043348138073 0.97359249087 0.23636990649 0.048900025731 0.97040404271 
0.2610067599 0.063215570911 0.96273233846 0.28763244947 0.078989070389 0.95431478323 0.3168902834 0.099433843845 0.94244781287 
0.34666108367 0.12078898012 0.92990860207 0.36631552178 0.13606244185 0.92018019206 0.3836928635 0.14996697678 0.91108446643 
0.38112889959 0.14771050278 0.91258270006 0.37343596398 0.14129736225 0.91680573609 0.32962974618 0.10474078707 0.93543377657 
0.27529585827 0.059396859521 0.95826113445 0.14490234586 -0.054037103457 0.9672122616 -0.010393656735 -0.18976425351 0.97162020697 
-0.16723981418 -0.35946184176 0.87971941004 -0.32464724156 -0.54145922439 0.75294777274 -0.38293344446 -0.64547240486 0.65017636973 
-0.4047604841 -0.72080112574 0.55623282841 -0.41203454731 -0.73819132945 0.53408479527 -0.41369160576 -0.73321903379 0.53964763713 
-0.44494845421 -0.69025738073 0.5653069954 -0.48851168275 -0.63150130915 0.59932166192 -0.53797484674 -0.57604749973 0.61122868561 
-0.59001566801 -0.52203643494 0.61347697201 -0.62073872939 -0.491331071 0.61031286283 -0.64167044089 -0.47133012782 0.60466281426 
-0.64141997025 -0.47186022523 0.60473786385 -0.63054399917 -0.48268919458 0.60768476265 -0.58820517884 -0.53315982532 0.60153718722 
-0.52851404822 -0.60549352395 0.59037385059 -0.47696208761 -0.68858884892 0.53228765738 -0.43030552895 -0.77815688382 0.44597914627 
-0.41377223302 -0.82538804967 0.38012454717 -0.41441765072 -0.84847531862 0.32593441818 -0.41726092334 -0.85983385265 0.2936318875 
-0.42140759234 -0.86423688179 0.27430938392 -0.088993929081 -0.74610426954 0.35322054121 0.46459671557 -0.54744504532 0.49668780479 
0.83510663503 -0.46545698327 0.097923163172 0.887745422 -0.45779931262 -0.019778226762 0.89275377684 -0.44892505749 0.022410958827 
0.8947580344 -0.43426615159 0.080923228506 0.89558714959 -0.41734440678 0.14582076003 0.88557502527 -0.39724691167 0.22497523809 
0.87043313733 -0.37564674259 0.31087569437 0.83621807043 -0.36187279129 0.40055135423 0.79223233869 -0.35210799603 0.49216094701 
0.75888255452 -0.35437434993 0.54490561935 0.73141462686 -0.36329413011 0.57615734205 0.7379516587 -0.35316683013 0.57383825104 
0.76421268093 -0.33199159974 0.55204698839 0.79981116253 -0.28689206734 0.52185243202 0.84116845306 -0.2270373988 0.48647520645 
0.87552854078 -0.15413995683 0.44948562258 0.90523389284 -0.07256609599 0.41142345273 0.92323783753 0.010567738963 0.3747601969 
0.93282542027 0.094823601924 0.33910312487 0.93374769244 0.16951607323 0.30829352054 0.92793321306 0.23677358959 0.28125252731 
0.92081694676 0.28735194557 0.2612257469 0.91260582415 0.32390244229 0.24709820769 0.90744867817 0.3456494941 0.23874316732 
0.90507859117 0.35388692252 0.2356561092 0.90442923088 0.356190137 0.23478567571 0.90548909055 0.35259882045 0.23611704395 
0.90573609347 0.35177948766 0.23640855033 0.90510433882 0.35395687197 0.23557588999 0.90132138756 0.36604203135 0.23046563369 
0.89383063666 0.38978499863 0.22032221992 0.87839414623 0.4296933854 0.2000349994 0.85277078618 0.49032671791 0.16674286774 
0.81106093855 0.56290574625 0.1148817915 0.74690671906 0.652151784 0.037112741544 0.67026222974 0.72914373557 -0.05427192076 
0.57478275041 0.78765685571 -0.16618855927 0.48847080033 0.82589493076 -0.26757210945 0.41687577577 0.83158483277 -0.35204655881 
0.35957394692 0.83244919589 -0.41968125776 0.32677115937 0.82504241524 -0.45845203092 0.30085716389 0.81873932997 -0.48879111668 
0.28780514658 0.81449694066 -0.50338750353 0.27549111908 0.81055844605 -0.51668748883 0.26469063157 0.80724320772 -0.52732868999 
0.25134286826 0.8033568532 -0.53954401113 0.23223794331 0.7981797047 -0.5553170401 0.21129574252 0.79259069502 -0.57154146216 
0.18576663456 0.78597344069 -0.58889282342 0.16145249815 0.77966601779 -0.60478949397 0.14050502299 0.77421713142 -0.61665524636 
0.12283880608 0.76963562004 -0.62652974459 0.11531861274 0.7677361307 -0.63024705857 0.11145447971 0.76671853707 -0.63220287833 
0.12030281661 0.76876737881 -0.62803381488 0.1322916911 0.77140377022 -0.62221506931 0.15667336336 0.77635867688 -0.60988655383 
0.18292814401 0.78148627669 -0.59603689036 0.21765408058 0.7873948834 -0.57530781615 0.25278416542 0.79308583951 -0.55360761965 
0.29003289395 0.79763581816 -0.5268165634 0.32711695033 0.80174788625 -0.49962132271 0.36318555832 0.80315958515 -0.46993368445 
0.3993702648 0.80397647494 -0.43997909585 0.43641573837 0.80038338379 -0.40804530778 0.47420138719 0.79585484568 -0.37560814962 
0.51878812562 0.78273096666 -0.33854578274 0.56447112264 0.76803779544 -0.3008070395 0.62310699223 0.73480261037 -0.25507655336 
0.68210255848 0.699863368 -0.20909172762 0.74696824205 0.63711453735 -0.15895617299 0.81178926665 0.57253696296 -0.10854182967 
0.87544900972 0.46040598204 -0.050878055223 0.93399169394 0.35728824562 0.0021506246808 0.93399169394 0.35728824562 0.0021506246808 
0.93399169394 0.35728824562 0.0021506246808 
FrenetTangent 3 127 double
-0.90902296857 0.33824930694 0.24344331777 -0.90902296857 0.33824930694 0.24344331777 -0.91499679564 0.32229564397 0.2427063696 
-0.92385808483 0.296795209 0.24165852563 -0.93455761929 0.26224541812 0.24047743532 -0.9458256644 0.21935017526 0.23937274942 
-0.95629953228 0.16904202001 0.23857074429 -0.96465356861 0.11249563424 0.23830280076 -0.96972232705 0.051123632469 0.23879904235 
-0.97061016866 -0.013457703144 0.24028064989 -0.96677751613 -0.079498473837 0.24294284711 -0.95809230725 -0.1452181175 0.24692271896 
-0.94483703965 -0.20893383219 0.2522491274 -0.92766960221 -0.26919257023 0.2587749394 -0.90754508634 -0.32488463942 0.26610503063 
-0.88561171879 -0.37532899604 0.27353249949 -0.86309232489 -0.42032127636 0.28000297024 -0.84115786749 -0.46014404228 0.28411424165 
-0.8207899646 -0.49553927842 0.28415604439 -0.80262762285 -0.52764021525 0.27818106027 -0.7867948069 -0.55786156063 0.2640916716 
-0.77270508578 -0.58775016114 0.23974277568 -0.75884901106 -0.61879581298 0.20307614398 -0.74257605474 -0.65220415361 0.15235007363 
-0.71994468583 -0.68861407317 0.086546563069 -0.68578898485 -0.72777528979 0.0060494484815 -0.63424852036 -0.76828280073 -0.086431201141 
-0.56003184666 -0.80754598249 -0.18502382789 -0.46033151517 -0.84221890735 -0.28064605509 -0.33660464984 -0.86910705699 -0.36242272721 
-0.19509084125 -0.88609861847 -0.42043882076 -0.045583288917 -0.89256576135 -0.44860731763 0.1009085029 -0.88918368079 -0.44628450103 
0.23447596777 -0.87757810062 -0.41818380868 0.34799878026 -0.86011928015 -0.37294996025 0.43799335276 -0.83971998306 -0.32098625047 
0.50440650418 -0.81941985313 -0.27225940359 0.54950306048 -0.80182280919 -0.23479047934 0.57640691472 -0.78861604191 -0.21410232856 
0.58787095236 -0.78031675414 -0.21333894763 0.58560170851 -0.77623320747 -0.23352226148 0.57021897703 -0.77460996663 -0.27355021081 
0.54175774745 -0.77307819816 -0.32992217659 0.50058281946 -0.76951539317 -0.39656386691 0.44825840821 -0.76325601921 -0.46530060027 
0.38766874835 -0.75626510029 -0.52704462774 0.321977032 -0.75394661552 -0.57262142102 0.25236324665 -0.76629234234 -0.59085432876 
0.17350660109 -0.81161861629 -0.55782674825 0.058685883288 -0.92020011854 -0.38702417101 -0.16254824317 -0.9587912069 0.23301821861 
-0.28230109977 -0.42778788825 0.85866385258 -0.26167597076 -0.10556910408 0.95936481622 -0.24665717886 0.012614160108 0.96902070106 
-0.24744359288 0.05470451038 0.96735675161 -0.26164548912 0.060664168117 0.96325567568 -0.2868959636 0.043701891542 0.95696439367 
-0.32073888723 0.0083937032187 0.94713046196 -0.36003895655 -0.043610290552 0.93191742785 -0.40065775333 -0.11116822922 0.90945862441 
-0.43753369328 -0.19232970867 0.87839259469 -0.46529034366 -0.28368808749 0.83846643648 -0.47924986017 -0.38048204209 0.79091907751 
-0.47642966942 -0.47733230818 0.73835536001 -0.45604794443 -0.56924169718 0.68409367968 -0.41936588165 -0.65235882082 0.6313162648 
-0.36911132879 -0.72423644168 0.58244175974 -0.3088065735 -0.78372435809 0.53890131815 -0.2422370146 -0.83070889465 0.50124241751 
-0.17307960945 -0.86585909552 0.46939479706 -0.10462092192 -0.89041744378 0.44295737776 -0.039539191619 -0.90599994569 0.42142704082 
0.020239964639 -0.91437938743 0.40435217284 0.073604551949 -0.91726271412 0.39142238467 0.12023845685 -0.91609676335 0.38250416163 
0.16052710522 -0.91193055565 0.37764230452 0.19542919187 -0.90533951931 0.37705143647 0.22632508315 -0.89640933353 0.38108695005 
0.25484709553 -0.88475983561 0.39019609326 0.28271559359 -0.86957761892 0.40485387217 0.31156179349 -0.84965224533 0.42546481739 
0.34273765876 -0.82341786545 0.45223214849 0.3771208414 -0.78903497393 0.48497802104 0.4149193818 -0.74457290773 0.52292742486 
0.45550685869 -0.6883648054 0.56450632979 0.49738640395 -0.61955217391 0.60725766275 0.53837064132 -0.53873393822 0.64801450322 
0.57605369724 -0.44843304292 0.68342515605 0.60850053335 -0.35297726891 0.7107279005 0.6348344124 -0.25767604736 0.72841493906 
0.65541951631 -0.16760284217 0.73643366635 0.67157358247 -0.08659112845 0.73586065243 0.68503369089 -0.016815768972 0.72831728818 
0.69745878743 0.041083246771 0.71544629895 0.71010617485 0.087586965193 0.69862561073 0.72370668758 0.12382616788 0.67890773342 
0.73847862906 0.15123274192 0.65709814502 0.75422078684 0.17128058624 0.63388797549 0.77044250641 0.18533961073 0.60997341992 
0.78649825976 0.19459691096 0.5861335425 0.80171654093 0.19998619087 0.56325492582 0.81549448331 0.20218876248 0.54229922738 
0.82735729066 0.20165851153 0.52422681954 0.83697653704 0.19865394325 0.50990870484 0.84416672469 0.19325623809 0.50003456617 
0.84886344754 0.18539819781 0.49503369147 0.85109505113 0.17490087549 0.4950221184 0.85096939086 0.16148534969 0.49977352637 
0.8486698554 0.14477387484 0.50872389535 0.84444847908 0.12431125761 0.52101197434 0.83860974712 0.099589313233 0.53555173486 
0.83147985172 0.070055267323 0.55112023707 0.82334078238 0.035152375474 0.56645764763 0.81433897708 -0.0056366949218 0.58036217836 
0.80440449373 -0.052702169639 0.59173971625 0.79319174715 -0.10618747076 0.59964245455 0.78007834245 -0.16584098748 0.60330303041 
0.76426811747 -0.23081216639 0.60217936569 0.745015943 -0.29949789939 0.59603041276 0.72194946057 -0.3694836919 0.58503912502 
0.6954080164 -0.43767947916 0.56995119462 0.66666183981 -0.50070756289 0.55213578748 0.63787673491 -0.55542491817 0.53349454668 
0.6117773092 -0.5993792084 0.5162103142 0.59113282936 -0.63100748593 0.50238583853 0.57823245225 -0.64954697572 0.49369621985 
0.57823245225 -0.64954697572 0.49369621985 
FrenetNormal 3 127 double
-0.35921631509 -0.93210937641 -0.046214168621 -0.35921631509 -0.93210937641 -0.046214168621 -0.3419541661 -0.93875204531 -0.042566955633 
-0.31443607148 -0.94855294267 -0.037111614068 -0.27720550685 -0.96034152862 -0.030020915749 -0.23099740416 -0.97271949781 -0.021377040404 
-0.17675885917 -0.98419080412 -0.011169905812 -0.11565780569 -0.99328885899 0.00071734440727 -0.049060700568 -0.99868939615 0.014578672023 
0.021463922119 -0.99929710443 0.030734298777 0.094182587353 -0.99432759515 0.049419366317 0.16721797955 -0.98339753532 0.070480031496 
0.23859497623 -0.96665285737 0.093030589925 0.30625063939 -0.94500121726 0.11481831411 0.36810803814 -0.92040703268 0.13170940151 
0.4220172363 -0.89624122437 0.1365764255 0.46550752208 -0.87710981379 0.11824179227 0.49440762377 -0.86720839912 0.059251110111 
0.49968701292 -0.86389774229 -0.063194778192 0.46544947469 -0.84568395595 -0.26110425725 0.38743617785 -0.77946809427 -0.49226283437 
0.30318202611 -0.67355220161 -0.67409798305 0.25782768383 -0.57178148135 -0.77883940774 0.26341075718 -0.49353028638 -0.82888034687 
0.31315317459 -0.43359547645 -0.84494381591 0.39767946215 -0.38167232567 -0.83437238761 0.50784263137 -0.32971150625 -0.79585563038 
0.63307806528 -0.27308374121 -0.72431859947 0.76009162299 -0.21059700264 -0.61474354583 0.87308680525 -0.1438834938 -0.46585080306 
0.95592056932 -0.075875015685 -0.28365268754 0.99653084754 -0.0093274784779 -0.082699867236 0.99169309119 0.053932604476 0.11677365736 
0.94873978607 0.11279949642 0.29524412261 0.88258420484 0.1664274962 0.43971241724 0.81074788607 0.21470620015 0.54459995672 
0.7506646752 0.26032419653 0.60723459891 0.72286052012 0.3153513093 0.61483836915 0.77085366376 0.43779737814 0.46272895388 
0.35047544145 0.48336178817 -0.80220218566 -0.28167214993 0.075272325067 -0.95655364566 -0.40891295535 0.0211687754 -0.91232783466 
-0.48625921179 0.031903513117 -0.87323201086 -0.56119460597 0.060338994096 -0.82548156855 -0.64587117779 0.083318166376 -0.75888635832 
-0.75161318023 0.071675060314 -0.65569833997 -0.89007748338 -0.03494483471 -0.45446774595 -0.94648712643 -0.32244117082 0.013921597109 
-0.64509207223 -0.52165063113 0.55833398373 -0.40364091148 -0.37646025654 0.83387750289 -0.25705306325 0.26915310576 0.92815964593 
0.002240576746 0.89477360982 0.44651446447 0.12733022299 0.98153578209 0.14273935267 0.10747301156 0.99410348379 0.014415800728 
-0.33916512221 0.93034598041 -0.13936777465 -0.92409207828 -0.30378867945 -0.23187554658 -0.73706215866 -0.64816428988 -0.19136987118 
-0.63509931629 -0.74376393535 -0.20848037539 -0.54664998802 -0.79960344198 -0.24861240148 -0.44917219807 -0.84131572268 -0.30071945606 
-0.33519382154 -0.87156536753 -0.35779730593 -0.20314956634 -0.88774094568 -0.41309353307 -0.054669112281 -0.88645812302 -0.45956858498 
0.10527597434 -0.86472108413 -0.49109511898 0.26930469534 -0.82091476809 -0.50356124216 0.42789356668 -0.75537001762 -0.49630961311 
0.57143219243 -0.67109245382 -0.47233480486 0.69266490312 -0.57359761581 -0.43726548814 0.78826823685 -0.46970928698 -0.39750015409 
0.85905247829 -0.36582432822 -0.35805223143 0.90862113065 -0.26665207468 -0.32140988164 0.94174108247 -0.17476814704 -0.2873670621 
0.96319459626 -0.090594628991 -0.25307861019 0.97703192388 -0.012378694429 -0.21273313716 0.9855201399 0.063747442578 -0.15711880033 
0.9869431951 0.14318389764 -0.073766531068 0.97196929014 0.23003757542 0.048563493691 0.92513008267 0.32025521901 0.20388949172 
0.84362917014 0.4006442575 0.35745489537 0.7507144707 0.463318705 0.47091778591 0.67113371317 0.51373563223 0.53446724803 
0.61071600288 0.56108180643 0.55876038721 0.56377046021 0.61102169791 0.55571157347 0.5225145425 0.66550580774 0.53299209445 
0.48114066632 0.72388084063 0.49446960249 0.4364086261 0.78365700182 0.44207376597 0.3874630427 0.84111199047 0.37736323355 
0.33575040359 0.89210497444 0.30235803456 0.28475670222 0.93310289817 0.21961922041 0.23935626207 0.96196009309 0.13168659424 
0.20513143816 0.97791686888 0.03999613272 0.18769903233 0.98063424503 -0.055906625196 0.19227753067 0.96845762708 -0.15849030178 
0.22271737342 0.936489892 -0.27089417448 0.27870911475 0.8762198565 -0.39314118639 0.35240046883 0.77952767345 -0.51783251722 
0.42688553858 0.64948569723 -0.6292353026 0.48591956953 0.50369459381 -0.71426460651 0.52240878452 0.36484465372 -0.77069931913 
0.54012625263 0.24347097046 -0.80559637398 0.54645221451 0.13655081705 -0.82628315463 0.54794384235 0.031974160483 -0.83590382144 
0.54879779215 -0.091521025462 -0.83093013258 0.54691457403 -0.27158312422 -0.79191354032 0.51201674444 -0.56698773144 -0.64526255572 
0.34244197826 -0.90627432593 -0.24779091528 0.082700412696 -0.97576930642 0.20257073426 -0.077584811134 -0.90247006051 0.42370790289 
-0.15474586484 -0.85176517194 0.50054950723 -0.1917720024 -0.8380516443 0.51077680113 -0.20785037528 -0.85026342659 0.48358073463 
-0.21137657774 -0.87751491457 0.43045036542 -0.20802034792 -0.90993066095 0.35882269593 -0.20285247492 -0.9396523191 0.27550751829 
-0.20094183818 -0.96148671024 0.18752515483 -0.20673622122 -0.97315566718 0.10113447622 -0.22296387799 -0.97461354133 0.020385145847 
-0.25037406863 -0.96671009655 -0.052767556266 -0.28743898987 -0.9504640789 -0.11830833372 -0.33140739142 -0.92685186326 -0.17639377676 
-0.37847308351 -0.89727955506 -0.22726091861 -0.42469615186 -0.86392771521 -0.27066969073 -0.46631392739 -0.8298555 -0.30641666115 
-0.50073642371 -0.79862548446 -0.33385680994 -0.52578944482 -0.77380055121 -0.35323953156 -0.54045782689 -0.75825752468 -0.36462427734 
-0.54045782689 -0.75825752468 -0.36462427734 
FrenetBinormal 3 127 double
0.21128388861 -0.12945855229 0.968813502 0.21128388861 -0.12945855229 0.968813502 0.21412195649 -0.12194308223 0.96916545153 
0.21821135636 -0.11027202214 0.96965142453 0.22306762023 -0.094717944897 0.97019036674 0.22815348305 -0.075513437186 0.97069238638 
0.23291094922 -0.052851268294 0.97106088026 0.23678421517 -0.026869590184 0.97119064069 0.23923138607 0.0024216154468 0.97095956646 
0.23969814462 0.034988388075 0.97021678617 0.23763601272 0.070658518136 0.96878093461 0.23258821574 0.10881629416 0.96646869376 
0.22440010211 0.14808412174 0.96317998685 0.21363439564 0.18576345042 0.95908930006 0.20213458021 0.21748762093 0.95490352718 
0.19389000958 0.2363891124 0.95211703678 0.19589381205 0.23239707224 0.95268946421 0.21912221135 0.19030778452 0.95695789021 
0.27679725999 0.090119445267 0.95669313912 0.37302236602 -0.080090260946 0.92435916426 0.480465545 -0.28499117387 0.82941719954 
0.55768047254 -0.44819323934 0.69865249642 0.59805774292 -0.53866286249 0.59343850288 0.61578858054 -0.57537604958 0.5382813629 
0.61936640092 -0.58121047911 0.52780644215 0.60954451325 -0.56979765127 0.55116796258 0.58294483116 -0.54866370461 0.59928579414 
0.53439357592 -0.52277600983 0.6641752401 0.45864541947 -0.49630254339 0.73710797352 0.35272757222 -0.47323404749 0.80723775686 
0.21944345244 -0.45724415834 0.86184241648 0.069630694863 -0.4508207624 0.88989449179 -0.079763944991 -0.45436071132 0.88723957142 