# vtk DataFile Version 4.2
vtk output
ASCII
DATASET POLYDATA
POINTS 128 float
0 0 0 -0.130147 0.209448 0.228973 -0.412232 0.601777 0.676815 
-0.710747 0.884123 1.04632 -1.02297 1.06409 1.34201 -1.37897 1.2223 1.64226 
-1.77318 1.35304 1.94121 -2.19147 1.43105 2.21436 -2.62699 1.4537 2.46142 
-3.07433 1.42403 2.68843 -3.52449 1.33991 2.89736 -3.96755 1.19844 3.08933 
-4.39446 1.00112 3.26772 -4.79702 0.751494 3.4366 -5.17006 0.456255 3.59978 
-5.5103 0.123281 3.76078 -5.8192 -0.239101 3.92181 -6.10032 -0.622797 4.08402 
-6.35907 -1.02215 4.24471 -6.60173 -1.43309 4.39901 -6.83531 -1.85598 4.53739 
-7.06628 -2.29218 4.64545 -7.29534 -2.73742 4.68798 -7.51936 -3.18383 4.62582 
-7.72558 -3.61441 4.45794 -7.89873 -4.0112 4.20218 -8.03798 -4.3803 3.88917 
-8.14869 -4.73815 3.55314 -8.23192 -5.09495 3.21 -8.28624 -5.45723 2.86638 
-8.30677 -5.82688 2.52654 -8.28685 -6.20288 2.1932 -8.21948 -6.57902 1.86651 
-8.09832 -6.94644 1.54531 -7.92543 -7.29752 1.22928 -7.70792 -7.62629 0.91868 
-7.45528 -7.93622 0.614301 -7.17843 -8.23631 0.317632 -6.88881 -8.53315 0.0341896 
-6.5975 -8.83366 -0.228149 -6.30736 -9.16799 -0.463731 -6.02099 -9.57675 -0.662329 
-5.80854 -10.0359 -0.734333 -5.77844 -10.474 -0.547613 -5.91645 -10.7949 -0.145317 
-6.12399 -10.8983 0.313154 -6.34099 -10.8144 0.764487 -6.5327 -10.6434 1.20302 
-6.68479 -10.4243 1.62763 -6.79496 -10.16 2.03968 -6.86192 -9.86572 2.44256 
-6.88469 -9.56377 2.84159 -6.85986 -9.27263 3.25013 -6.78312 -9.01166 3.68537 
-6.65866 -8.84514 4.14641 -6.49776 -8.8615 4.61799 -6.32801 -9.06404 5.05884 
-6.18577 -9.39672 5.41426 -6.07604 -9.80767 5.68503 -5.98315 -10.2507 5.9081 
-5.89839 -10.7055 6.10229 -5.81829 -11.1703 6.27315 -5.73987 -11.6423 6.42646 
-5.66044 -12.1176 6.56833 -5.57766 -12.594 6.70368 -5.48939 -13.0702 6.83643 
-5.39299 -13.5447 6.96958 -5.28537 -14.0161 7.10533 -5.1629 -14.4829 7.24445 
-5.02151 -14.9435 7.38647 -4.85696 -15.3958 7.5303 -4.66492 -15.8371 7.67437 
-4.44163 -16.264 7.81739 -4.18399 -16.6718 7.95838 -3.89038 -17.0555 8.0972 
-3.5607 -17.4093 8.23453 -3.1966 -17.7277 8.37197 -2.80155 -18.0054 8.51212 
-2.38032 -18.2382 8.65785 -1.93901 -18.4232 8.81233 -1.48403 -18.5589 8.97804 
-1.02204 -18.6453 9.15661 -0.559005 -18.6838 9.34865 -0.1 -18.6775 9.5535 
0.351146 -18.6297 9.7698 0.792158 -18.545 9.99531 1.22204 -18.4279 10.2275 
1.64142 -18.2835 10.4633 2.05202 -18.1169 10.6998 2.45695 -17.9336 10.9337 
2.85943 -17.739 11.1624 3.26269 -17.5383 11.3844 3.6692 -17.3366 11.5994 
4.08019 -17.1387 11.8095 4.49638 -16.9496 12.0174 4.91785 -16.7745 12.227 
5.34422 -16.6196 12.4428 5.77444 -16.4927 12.6693 6.20617 -16.4037 12.911 
6.63478 -16.3655 13.1718 7.05175 -16.3929 13.4537 7.44139 -16.5034 13.7541 
7.78406 -16.7085 14.0653 8.05372 -17.0074 14.3692 8.23204 -17.3887 14.6488 
8.3187 -17.8237 14.8917 8.32125 -18.2858 15.0915 8.25927 -18.7586 15.2546 
8.15171 -19.2308 15.3886 8.01233 -19.7002 15.5014 7.85249 -20.1662 15.5992 
7.67947 -20.6296 15.6859 7.49896 -21.0918 15.7632 7.31408 -21.554 15.8294 
7.12718 -22.0173 15.8819 6.93944 -22.4818 15.9159 6.75207 -22.9476 15.9281 
6.56685 -23.4145 15.919 6.38576 -23.8825 15.8913 6.21121 -24.3513 15.8526 
6.04585 -24.8225 15.8163 5.89297 -25.3035 15.8132 5.75664 -25.7935 15.8686 
5.64306 -26.2606 15.9784 5.55691 -26.6869 16.1532 5.49579 -27.1293 16.4804 
5.45721 -27.5854 16.9543 5.4436 -27.8044 17.2096 
LINES 1 129
128 0 1 2 3 4 5 6 7 8 9 10 11 12 13 14 15 16 17 18 19 20 21 22 23 24 25 26 27 28 29 30 31 32 33 34 35 36 37 38 39 40 41 42 43 44 45 46 47 48 49 50 51 52 53 54 55 56 57 58 59 60 61 62 63 64 65 66 67 68 69 70 71 72 73 74 75 76 77 78 79 80 81 82 83 84 85 86 87 88 89 90 91 92 93 94 95 96 97 98 99 100 101 102 103 104 105 106 107 108 109 110 111 112 113 114 115 116 117 118 119 120 121 122 123 124 125 126 127 

CELL_DATA 1
FIELD FieldData 2
Length 1 1 double
55.657175446 
Tortuosity 1 1 double
0.67897602317 
POINT_DATA 128
SCALARS MaximumInscribedSphereRadius float
LOOKUP_TABLE default
1.116 1.15817 1.20034 1.16153 1.11679 1.0118 0.904268 0.807334 0.711026 
0.749644 0.79905 0.908256 1.02351 1.11608 1.20588 1.14821 1.06899 1.03806 
1.01543 1.08893 1.18164 1.2155 1.23586 1.24 1.24 1.18142 1.10709 
1.06187 1.02536 1.0898 1.18794 1.29392 1.4028 1.40236 1.35765 1.20838 
1.01295 1.08407 1.28395 1.4169 1.51444 1.59007 1.65314 1.73655 1.83198 
1.86 1.86 1.87165 1.88834 1.95449 2.04373 2.10541 2.15308 2.1452 
2.10675 2.04871 1.97953 2.01032 2.09481 2.07703 1.99991 1.90756 1.80559 
1.70735 1.61168 1.56487 1.5546 1.55 1.55 1.53446 1.50523 1.43934 
1.33846 1.31882 1.38294 1.44797 1.51401 1.55484 1.56547 1.61096 1.70142 
1.79867 1.90537 1.99615 2.06303 2.0662 1.96569 1.86435 1.76154 1.66951 
1.59836 1.55044 1.55182 1.57531 1.65044 1.73332 1.83617 1.93801 2.03696 
2.11899 2.14775 2.15518 2.08966 2.02841 1.98255 1.9587 2.01894 2.03845 
1.88623 1.75942 1.75442 1.77713 1.95389 2.08375 1.90516 1.74259 1.70753 
1.68047 1.73283 1.77604 1.69979 1.63105 1.70288 1.77118 1.74932 1.72303 
1.63651 1.55 
TEXTURE_COORDINATES TCoords 2 float
0 0 0.00787402 0 0.015748 0 0.023622 0 0.0314961 
0 0.0393701 0 0.0472441 0 0.0551181 0 0.0629921 0 
0.0708661 0 0.0787402 0 0.0866142 0 0.0944882 0 0.102362 
0 0.110236 0 0.11811 0 0.125984 0 0.133858 0 
0.141732 0 0.149606 0 0.15748 0 0.165354 0 0.173228 
0 0.181102 0 0.188976 0 0.19685 0 0.204724 0 
0.212598 0 0.220472 0 0.228346 0 0.23622 0 0.244094 
0 0.251969 0 0.259843 0 0.267717 0 0.275591 0 
0.283465 0 0.291339 0 0.299213 0 0.307087 0 0.314961 
0 0.322835 0 0.330709 0 0.338583 0 0.346457 0 
0.354331 0 0.362205 0 0.370079 0 0.377953 0 0.385827 
0 0.393701 0 0.401575 0 0.409449 0 0.417323 0 
0.425197 0 0.433071 0 0.440945 0 0.448819 0 0.456693 
0 0.464567 0 0.472441 0 0.480315 0 0.488189 0 
0.496063 0 0.503937 0 0.511811 0 0.519685 0 0.527559 
0 0.535433 0 0.543307 0 0.551181 0 0.559055 0 
0.566929 0 0.574803 0 0.582677 0 0.590551 0 0.598425 
0 0.606299 0 0.614173 0 0.622047 0 0.629921 0 
0.637795 0 0.645669 0 0.653543 0 0.661417 0 0.669291 
0 0.677165 0 0.685039 0 0.692913 0 0.700787 0 
0.708661 0 0.716535 0 0.724409 0 0.732283 0 0.740157 
0 0.748031 0 0.755906 0 0.76378 0 0.771654 0 
0.779528 0 0.787402 0 0.795276 0 0.80315 0 0.811024 
0 0.818898 0 0.826772 0 0.834646 0 0.84252 0 
0.850394 0 0.858268 0 0.866142 0 0.874016 0 0.88189 
0 0.889764 0 0.897638 0 0.905512 0 0.913386 0 
0.92126 0 0.929134 0 0.937008 0 0.944882 0 0.952756 
0 0.96063 0 0.968504 0 0.976378 0 0.984252 0 
0.992126 0 1 0 
FIELD FieldData 7
Curvature 1 128 double
0 0.043097773754 0.080636323452 0.11591317128 0.14776598502 0.1749863193 0.19654507637 0.21183082813 0.22080673029 
0.22395595366 0.22212696022 0.21636162592 0.20778038292 0.1976050689 0.18720719894 0.17822042383 0.17247496301 0.17169145355 
0.17686306764 0.18756142804 0.20168013919 0.2158631418 0.22640278998 0.23041248794 0.22690166592 0.2170282241 0.20344311855 
0.1890633548 0.17593946907 0.16478964078 0.15513886549 0.14604677784 0.13690730756 0.12833809455 0.12285105873 0.12543745824 
0.14322169464 0.18457296027 0.26112050461 0.39497459177 0.62740077024 1.0085803111 1.4869773621 1.7115200382 1.410424177 
0.91530712879 0.53856166665 0.30570847433 0.165802476 0.093723952397 0.10543340417 0.16708850266 0.24273899467 0.32061603376 
0.38726212298 0.42517288245 0.42255809553 0.38297275355 0.32246167541 0.25782107918 0.19927596597 0.15055307081 0.11192373337 
0.082893675265 0.06376512989 0.055912511346 0.058982168187 0.06927449289 0.083045140588 0.098236958301 0.11383745077 0.12921498457 
0.1438968926 0.15742155029 0.16932795755 0.1792199432 0.1866112704 0.19121173049 0.19279015531 0.19109583034 0.18617933424 
0.17803670371 0.16697529962 0.15330373783 0.13746179984 0.11991762881 0.10113374246 0.081443482454 0.061137008366 0.0404162463 
0.01993628536 0.011779643049 0.032084530021 0.057945584257 0.087073183607 0.1201479135 0.15801507009 0.20145727174 0.25055054428 
0.3037008625 0.35656710089 0.4011950782 0.42789849051 0.42944120574 0.40549272472 0.36296481968 0.31174944336 0.26020831846 
0.21325158513 0.17267591116 0.13841096809 0.10946168032 0.084466672455 0.061959854022 0.040594936482 0.019198817712 0.0034898535886 
0.026402523371 0.050163384789 0.073081369452 0.092939148113 0.1068063519 0.11182125436 0.10605815436 0.089329770504 0.063376570957 
0.031146056626 0 
Torsion 1 128 double
0 0 0.030972705999 0.043505294875 0.057130310044 0.071183240937 0.084653907093 0.096021745712 0.10315535429 
0.10367182057 0.095099039504 0.075175075407 0.042205426851 -0.0046421773261 -0.064191658053 -0.13106034567 -0.19309952493 -0.23215028753 
-0.23416673403 -0.2005533163 -0.14565404035 -0.084075749554 -0.023479467014 0.034474956821 0.090596975718 0.14507497733 0.19558227366 
0.23704891764 0.26449145364 0.27791311732 0.28583926551 0.30300729161 0.34629591559 0.42978600802 0.55045320529 0.65452751924 
0.64894932878 0.52291182116 0.35548765191 0.19954810948 0.065803541942 -0.040826333511 -0.11229592529 -0.16566115105 -0.23590637013 
-0.33322656147 -0.45890155162 -0.68157867003 -1.2811395371 -2.7494023936 -1.8632749846 -0.75527298166 -0.3976868912 -0.25372693036 
-0.17940872818 -0.13320564247 -0.099307307936 -0.069563275543 -0.038241400195 -0.00010272676291 0.051171699299 0.12666595173 0.24627425192 
0.43684198526 0.68549432096 0.80485789334 0.64054354813 0.40664699008 0.2485687945 0.16063195138 0.11515575472 0.09377430879 
0.085864689905 0.085272829647 0.088181182324 0.091751665489 0.094418142197 0.094740426536 0.092017590604 0.086335718839 0.077462128966 
0.066118759683 0.053116370448 0.039497337469 0.026533488288 0.016225015761 0.011844403348 0.019810205314 0.059173651418 0.20720179578 
1.0989041706 3.4663903881 0.43581390073 0.098107015986 0.016514463974 -0.010886098232 -0.02014066506 -0.021786980077 -0.020089178702 
-0.016717220692 -0.012545249153 -0.0081678205621 -0.0033572922026 0.002149815816 0.00867417686 0.016964447145 0.027653410335 0.041201861074 
0.05782750207 0.077002440783 0.097470262878 0.11720591547 0.13404940769 0.14843219809 0.17082844859 0.31504744422 6.1574767192 
0.19648713457 0.10383907142 0.073867947373 0.055832799877 0.042694339344 0.032511387738 0.024188668236 0.017249606664 0.011565908617 
0 0 
Abscissas 1 128 double
0 0.5021582172 1.0043164344 1.5064711986 2.0086257094 2.5107829703 3.0129403471 3.5151038051 4.0172676225 
4.5194237243 5.0215792093 5.5237368361 6.0258946795 6.5280524618 7.0302102366 7.532369087 8.0345280947 8.5366881697 
9.038848428 9.5410064005 10.043163916 10.545320177 11.047476149 11.549633849 12.05179199 12.553949104 13.056105941 
13.558264364 14.060423261 14.562580872 15.064738052 15.566896275 16.069054884 16.571212705 17.073370208 17.575529282 
18.07768905 18.579846864 19.082003734 19.584161608 20.086320012 20.588478343 21.090636631 21.592791273 22.094943758 
22.597100773 23.099259672 23.601415082 24.103568982 24.60572535 25.107882871 25.610040529 26.112198257 26.614357642 
27.116517939 27.618675365 28.120831155 28.622989117 29.125148246 29.627311221 30.129476427 30.63164429 31.13381383 
31.635954471 32.138075263 32.640229953 33.142409982 33.644563478 34.14669543 34.648858319 35.151048472 35.653215257 
36.155359751 36.657509397 37.159664358 37.661827015 38.163998233 38.666159189 39.168307855 39.670460778 40.172619191 
40.674778095 41.176937681 41.679095924 42.181252149 42.683402984 43.185545045 43.687693461 44.189853134 44.692013519 
45.194175281 45.69634064 46.198513633 46.700680004 47.202830914 47.704981035 48.207129127 48.70928044 49.211440941 
49.713604599 50.215778197 50.717943186 51.220078721 51.72222336 52.224400885 52.72656627 53.228685257 53.730813516 
54.232980861 54.735152234 55.237342939 55.739526438 56.241669862 56.743812469 57.245949698 57.748089699 58.250251756 
58.752412534 59.254560633 59.756709819 60.258873191 60.761038047 61.263230671 61.765421306 62.267561014 62.769701098 
63.271846288 63.773991478 
ParallelTransportNormals 3 128 double
0 -0.74822008041 0.66345060952 0.024707558942 -0.77354057039 0.63133634216 0.049415117884 -0.79886106037 0.59922207481 
0.080246728966 -0.81631019165 0.57023874199 0.11152760106 -0.83318187934 0.54148509482 0.15313557785 -0.84337782799 0.51235996642 
0.19517930004 -0.85329209821 0.48321916361 0.25364269166 -0.85290641542 0.45120078859 0.31307644232 -0.85191203265 0.41901235668 
0.38920716168 -0.83261540904 0.38408036367 0.46667277392 -0.81185555389 0.34892902784 0.54779900521 -0.76896119101 0.31408500687 
0.62929523892 -0.7238295504 0.27927204819 0.69590548742 -0.66735769444 0.24873319399 0.76068646222 -0.60949228894 0.21871956583 
0.80272217504 -0.5592084575 0.19634968451 0.84143188191 -0.51003326841 0.17509753695 0.86184217407 -0.47901700257 0.16306623903 
0.87910825688 -0.45112080681 0.15261926947 0.88362728669 -0.44343878372 0.15015715729 0.88559801431 -0.43979783746 0.14929132228 
0.87993768151 -0.45111726266 0.14810327038 0.87252673797 -0.46586868625 0.14684130001 0.87214289706 -0.46633419314 0.14793486208 
0.87355295781 -0.46315274466 0.14962975214 0.88039858639 -0.44237339076 0.16742617444 0.88870516319 -0.41686414857 0.18955029636 
0.89598560772 -0.37820550861 0.22546598628 0.90295891701 -0.33561107638 0.26550967867 0.90292276938 -0.27896071291 0.31690002078 
0.90054721378 -0.21761917894 0.37207731003 0.88489484853 -0.15110547599 0.43114137679 0.86433942066 -0.082681715663 0.49164081198 
0.8368223645 -0.027579554766 0.54205102054 0.80648681984 0.022129216362 0.58837649947 0.78057456453 0.056445416836 0.62100139875 
0.7566144795 0.083968274918 0.64757969733 0.73743866595 0.1053457752 0.66656424234 0.7205740224 0.12375459641 0.68188042206 
0.70092392018 0.15148841391 0.69587956019 0.6798001852 0.18415557329 0.70918192418 0.66039838416 0.28028841565 0.68391937698 
0.64198478918 0.41284377741 0.63652469222 0.67538433124 0.4993370461 0.51644769226 0.73943462243 0.55858167206 0.35337450373 
0.79331685335 0.55237273513 0.22274386055 0.84297410878 0.51896690019 0.1055935622 0.87604999138 0.47039583432 0.0058957745493 
0.90195242604 0.41526397306 -0.086251692736 0.91344966525 0.36440971713 -0.16229939548 0.91821547683 0.31555435048 -0.2308238126 
0.91588584416 0.28551142048 -0.27915285167 0.90994983824 0.26503021292 -0.31721726618 0.91597575344 0.25780203086 -0.30492720665 
0.9285821588 0.25786460109 -0.26493615178 0.94595392956 0.23204150697 -0.21737792426 0.9660408696 0.19146949965 -0.16550813759 
0.9764345018 0.16305805619 -0.13928463124 0.98162149244 0.14117851063 -0.12683671014 0.98395798496 0.13072243337 -0.12133908115 
0.98464065253 0.1268941159 -0.11987392857 0.9843723919 0.12853473561 -0.12026916033 0.9835039921 0.13362684988 -0.12183849708 
0.98170804309 0.14336503203 -0.12465113081 0.97927504515 0.15629417438 -0.1283176718 0.97503428771 0.17561012232 -0.133873699 
0.96944214915 0.19970049326 -0.1408422017 0.96020274416 0.23206767149 -0.1505968977 0.94800204058 0.27115497784 -0.16261376744 
0.92941438903 0.31859646406 -0.17774310487 0.90519822547 0.37340008972 -0.19561531134 0.87203711978 0.43348170593 -0.21595086007 
0.83034240489 0.49859860441 -0.23863647432 0.77941213055 0.56321645722 -0.26264950478 0.71895819087 0.62731969649 -0.28803136055 
0.65252037144 0.6851093786 -0.31390830968 0.5794273567 0.73587720235 -0.34033589537 0.50575696593 0.77751894909 -0.36683353309 
0.43139513014 0.80823163008 -0.3934150626 0.36068602606 0.83077425624 -0.41970020407 0.29468842208 0.84277868327 -0.44560304745 
0.23400610726 0.84935119788 -0.4706981476 0.18071286358 0.84837251707 -0.4946703602 0.13230349351 0.84457578799 -0.51746260496 
0.09122765546 0.83654753105 -0.53848303238 0.054109029979 0.82755159278 -0.5580237753 0.023430172324 0.81698089878 -0.5751565544 
-0.0038097471257 0.8068063618 -0.59045781079 -0.024958046289 0.79733356415 -0.60251476904 -0.042194883026 0.78947800965 -0.61225968501 
-0.05186143392 0.78475248469 -0.61752984984 -0.056233672923 0.78257116905 -0.61998556918 -0.049369354805 0.78578963982 -0.61646795747 
-0.035488331317 0.79163269687 -0.60941867225 -0.0052259264575 0.80360318074 -0.59412425092 0.034344208853 0.81686595115 -0.57347511332 
0.097907164418 0.83345988788 -0.5390229605 0.1733788506 0.84661985473 -0.4954756816 0.28282068171 0.84998428095 -0.42598418066 
0.40105257337 0.83900000465 -0.34459078769 0.54695719731 0.78284336567 -0.22572804287 0.68547550139 0.70546206059 -0.10252173763 
0.7987244682 0.55546905489 0.035544321249 0.89318894708 0.40137970403 0.16314325248 0.9197885363 0.23249101377 0.25292638244 
0.93766976807 0.076222535948 0.33166040329 0.92223327344 -0.031817042441 0.36816959043 0.90675219075 -0.12913303671 0.4000429362 
0.89108314354 -0.18124290743 0.41237352319 0.87664022666 -0.22831953391 0.42329148861 0.86807920773 -0.2512510687 0.42743293458 
0.85993588791 -0.27291208226 0.43122844515 0.8541154953 -0.28750741552 0.43310012401 0.84824859813 -0.30220372827 0.43483188617 
0.8420757846 -0.31756430429 0.43564324847 0.83626560103 -0.33204637615 0.43633846996 0.83334118371 -0.33953741622 0.43610945657 
0.83136973832 -0.34443025297 0.43601033729 0.8388509759 -0.32355109014 0.43719965859 0.84730278924 -0.29913551693 0.43799597063 
0.86842631613 -0.22854902057 0.43366120388 0.88959244577 -0.15648119698 0.42775666219 0.91155589435 -0.056690047182 0.39247347817 
0.93306146257 0.042149032519 0.35631639499 0.94284634783 0.1166173096 0.29778950511 0.95196039472 0.18598014337 0.24327513881 
0.95196039472 0.18598014337 0.24327513881 0.95196039472 0.18598014337 0.24327513881 
FrenetTangent 3 128 double
-0.6558872934 0.38891198298 0.64696161235 -0.6558872934 0.38891198298 0.64696161235 -0.67321964696 0.36572719229 0.64266548668 
-0.69909050185 0.32824931703 0.63523606328 -0.73059322856 0.27682566833 0.6241803295 -0.76413655484 0.21230128045 0.60911697716 
-0.795860512 0.13620748278 0.58996064875 -0.82213650168 0.050805777993 0.56701882291 -0.84004667491 -0.041048548865 0.54095896389 
-0.84772952732 -0.13618014487 0.51264960417 -0.8445217944 -0.23142054702 0.48293629932 -0.83090201162 -0.32391492568 0.45241680784 
-0.8082806977 -0.41135493974 0.42127120394 -0.77869166216 -0.49212028154 0.38917467001 -0.7444376239 -0.56531443551 0.35529172959 
-0.70773235344 -0.63069143766 0.3183445089 -0.6703806415 -0.68847959196 0.27674111903 -0.63354069897 -0.73911736687 0.22876123085 
-0.59758416202 -0.7829607633 0.17281670183 -0.56207886719 -0.82002906126 0.10779464617 -0.52591125887 -0.84988028245 0.033479147189 
-0.48755593338 -0.8717137426 -0.049034302172 -0.44547044044 -0.88473364134 -0.13712210098 -0.39851692517 -0.88866972899 -0.22682674693 
-0.34623982499 -0.8841959501 -0.31355303448 -0.28887681931 -0.87297168508 -0.39302750579 -0.2271434698 -0.8572561134 -0.46207986341 
-0.16196441119 -0.83932940132 -0.51893514584 -0.094330623566 -0.82103876743 -0.56302493359 -0.025323455107 -0.8036424492 -0.59457340713 
0.043774808669 -0.78793109027 -0.61420547304 0.11141426327 -0.77450591081 -0.6226776502 0.17582744491 -0.76406105386 -0.62072168932 
0.23520991255 -0.75755496771 -0.60892262886 0.28795816009 -0.75622262843 -0.58754355947 0.33283828165 -0.76145221661 -0.55624562928 
0.36899788814 -0.77457552311 -0.51368601066 0.39578502308 -0.79659797852 -0.45693093146 0.41232977628 -0.82774568863 -0.38055384711 
0.41676509902 -0.86633609611 -0.27526100491 0.40478093956 -0.9056449298 -0.12633151664 0.36743439591 -0.92617096022 0.08484878994 
0.29166747011 -0.88481979482 0.36335109409 0.17636084172 -0.73263503315 0.65737566254 0.055725980674 -0.49239698823 0.86858495328 
-0.03013611468 -0.25501432401 0.96646754169 -0.073776714082 -0.073286886098 0.99457831707 -0.085711091744 0.049822342183 0.99507353646 
-0.076505034303 0.12507370712 0.98919338226 -0.053131950619 0.16128608366 0.98547643048 -0.019941661509 0.16311655938 0.98640525049 
0.020089414709 0.13209107112 0.99103398748 0.064375612055 0.068263083982 0.99558823413 0.10992258005 -0.027545808984 0.99355838017 
0.15285250909 -0.15085058077 0.97666791324 0.18874148644 -0.29118731177 0.93786278355 0.21408391703 -0.43309463501 0.87555531727 
0.2279945558 -0.5613727351 0.79553701034 0.23251148944 -0.66673019645 0.70810257196 0.23129210781 -0.74718806487 0.62306817972 
0.22805146971 -0.8055855587 0.54683126719 0.22573173756 -0.84645427893 0.48224509986 0.22639612023 -0.87409988424 0.42976061839 
0.23141799624 -0.89189345808 0.38855085954 0.24169645599 -0.90219637725 0.3572457418 0.25781379998 -0.90650997766 0.33432275564 
0.28011704284 -0.9056616603 0.31829451672 0.3087509193 -0.89995982492 0.3078070554 0.343650256 -0.88931915428 0.3016884873 
0.38451606285 -0.87336175299 0.29897599542 0.43078519398 -0.85150774349 0.29892922143 0.48159000053 -0.82307572591 0.30102727585 
0.53574231187 -0.7873932347 0.30494601034 0.59175001114 -0.74391638366 0.31051624505 0.64786597321 -0.69235543074 0.3176690704 
0.7021907311 -0.6327776688 0.32637493626 0.75279822963 -0.56569959094 0.33656915824 0.79789915089 -0.49212007547 0.34810167527 
0.83602528541 -0.4134727709 0.36069653434 0.86615836355 -0.33157102838 0.37393895543 0.88783610046 -0.24846862896 0.38731175961 
0.90119723323 -0.16630388459 0.40023313805 0.90694666335 -0.087144272975 0.41213301922 0.90625744275 -0.012837033487 0.42253125096 
0.90062167845 0.055067303448 0.43110113013 0.89168160267 0.11536415045 0.43771569797 0.88105849921 0.16718391218 0.44247650839 
0.87021282832 0.20992731623 0.44571308633 0.86034403932 0.24318596604 0.44796062318 0.85232439116 0.26665622764 0.44993064853 
0.84667756296 0.28003452645 0.45245747688 0.84356621175 0.28295598879 0.45643395448 0.84278415711 0.27492675848 0.4627419821 
0.84374124817 0.25526986206 0.47216311129 0.84542006958 0.22311703077 0.48526662416 0.84630329966 0.17738163916 0.50230118362 
0.84425684866 0.11682923993 0.52304999971 0.83639941 0.040287983884 0.54663781913 0.81902652403 -0.05295481672 0.5713066955 
0.78773746991 -0.1624314588 0.59421014776 0.73802846863 -0.28551314077 0.61138876825 0.66659820587 -0.41646777545 0.61822441228 
0.57318908217 -0.54641387276 0.61064404995 0.46197208251 -0.66505665222 0.58675501218 0.34110172586 -0.76383218537 0.54791423162 
0.22020128259 -0.83858624316 0.49828155487 0.10741887971 -0.89000706678 0.44311240715 0.0078261194628 -0.92201969107 0.38706387216 
-0.076522900183 -0.93968484711 0.33337161526 -0.14566167905 -0.94773399936 0.28387134711 -0.20073430519 -0.94993608789 0.23943092456 
-0.24331275963 -0.94901406786 0.20042754303 -0.27501737743 -0.94680076461 0.16713394103 -0.29734463716 -0.94445423342 0.13997273924 
-0.31161693517 -0.94264718617 0.1196292946 -0.31897551096 -0.9416978216 0.10705062452 -0.32038117468 -0.94163658973 0.10332683964 
-0.31663819098 -0.9422070353 0.10948131644 -0.30841826209 -0.94284293969 0.12619574747 -0.29631978789 -0.94267925196 0.1534614324 
-0.28097864175 -0.94066981094 0.19024013685 -0.26321715536 -0.93587453218 0.23421270066 -0.24417952195 -0.92788661897 0.28178499497 
-0.22536607599 -0.91722684269 0.32848904219 -0.20850470753 -0.90545433486 0.36970019531 -0.19528522246 -0.89482740628 0.40143193054 
-0.18707204915 -0.88762999937 0.42085274461 -0.18707204915 -0.88762999937 0.42085274461 
FrenetNormal 3 128 double
-0.60496678308 -0.78341912642 -0.14237156924 -0.60496678308 -0.78341912642 -0.14237156924 -0.58082547614 -0.79942358654 -0.15350470856 
-0.54150083225 -0.82321992829 -0.17054559021 -0.48678200203 -0.85220289009 -0.19181636173 -0.41687842329 -0.88312787417 -0.21516862702 
-0.33283162218 -0.91236669829 -0.23834873427 -0.23674095539 -0.93631459679 -0.25936209415 -0.13184390361 -0.9517928205 -0.27696139068 
-0.022407983533 -0.95642445351 -0.29111878505 0.086651808763 -0.94897466971 -0.30321368751 0.19013269364 -0.92942933049 -0.31624464966 
0.28305500928 -0.89884574262 -0.33459855454 0.36093740037 -0.85874346072 -0.36370848449 0.41992135176 -0.81010928577 -0.40913201224 
0.45687069413 -0.75228445422 -0.47469702842 0.47014775698 -0.68265166831 -0.5594173633 0.46171721345 -0.59841762241 -0.65476221943 
0.43976243048 -0.50027448426 -0.74587830451 0.41717707035 -0.39362902413 -0.81915778904 0.40617419341 -0.28553759221 -0.86803848305 
0.4134599685 -0.18105671759 -0.89233924012 0.44039745162 -0.083194660657 -0.89394000528 0.4851766923 0.0056103646569 -0.87439813647 
0.54502059672 0.082456479703 -0.83435812341 0.61674943033 0.14429807886 -0.77382052482 0.69637767419 0.18871335831 -0.69241996164 
0.77796598627 0.21491079824 -0.59040856448 0.85371378001 0.22421629149 -0.469999826 0.91584508977 0.21976742169 -0.33605066867 
0.95944263454 0.20453125921 -0.19400204905 0.9828326974 0.17859778289 -0.046289532958 0.98442017894 0.1372843192 0.10986321946 
0.95701919155 0.071141045784 0.28116404218 0.88186389088 -0.029799982801 0.47056140831 0.73393710199 -0.16118736801 0.65981433958 
0.51873112939 -0.28696922672 0.80533637588 0.29411122504 -0.36140173097 0.8848092315 0.11119286254 -0.36886869927 0.92280660488 
-0.023591073866 -0.31301888707 0.94945386279 -0.12708844842 -0.19253331686 0.97302592369 -0.21701680716 0.0033327973815 0.97616217806 
-0.29824632365 0.2768041612 0.91347062721 -0.34994553113 0.57754578947 0.7375493111 -0.34305383922 0.80753302215 0.47979629171 
-0.27828750631 0.9308169733 0.23693000244 -0.16743532036 0.98405004631 0.06009092987 0.0021677461961 0.99875586066 -0.049819992732 
0.30042418765 0.94888684098 -0.096742288992 0.83986127366 0.54107348905 -0.043272629344 0.92826277507 -0.36346614275 0.078870675788 
0.66735234003 -0.73986570283 0.085085815746 0.49386937338 -0.86909618839 0.02765605495 0.37520505598 -0.92450693719 -0.067142304499 
0.28105483829 -0.94083620349 -0.18930244602 0.19838920325 -0.92403025597 -0.32681770161 0.12360546551 -0.87712051436 -0.46409190058 
0.058372503567 -0.80770591582 -0.58668884801 0.0064434139821 -0.72698398971 -0.6866241775 -0.027718464325 -0.64523499023 -0.76348116815 
-0.038690293399 -0.56868509012 -0.82164489256 -0.018017109233 -0.49856458513 -0.8666652977 0.049949284468 -0.43021753725 -0.90134229881 
0.19082621671 -0.35001865487 -0.91709993799 0.42739121455 -0.23154865246 -0.87391187844 0.70607834261 -0.059429330229 -0.70563554957 
0.88523734675 0.1154414371 -0.45058641183 0.94077295542 0.24129428874 -0.23816656477 0.93907865095 0.32747435445 -0.10436395218 
0.91817890248 0.39530347661 -0.026127847721 0.88925827863 0.45696091934 0.020160161015 0.85411449631 0.51775110759 0.049216031839 
0.81205102576 0.57943385045 0.069494924317 0.76201188794 0.64187894286 0.085611362256 0.70321632714 0.70390896518 0.099994829795 
0.63544112614 0.76374530547 0.11361198699 0.55920675437 0.81934084435 0.12636608185 0.47567854404 0.86875034932 0.13785047443 
0.38683959147 0.91036366762 0.14694598716 0.29505035478 0.94317165388 0.15288073609 0.20303664181 0.96685185154 0.15483416695 
0.11360539841 0.98180590138 0.15215447897 0.029244545736 0.98903278008 0.14477194646 -0.04791804801 0.98997676677 0.13285278291 
-0.11640377993 0.98626283776 0.11719972219 -0.17530606923 0.97952815995 0.09895638415 -0.22476449797 0.97107021599 0.080644628298 
-0.26592868896 0.96171412547 0.066241023927 -0.30261591881 0.95089478905 0.064982350167 -0.34619733418 0.9324706603 0.10317884227 
-0.44350711561 0.84121622614 0.30928417237 -0.32015122283 -0.41740741676 0.85045531508 0.015975100762 -0.87211063574 0.48904788639 
0.055492900767 -0.91644230338 0.39630044478 0.038723186334 -0.9317796375 0.36095321302 -0.0025494461701 -0.94157257845 0.3368005045 
-0.060865378322 -0.94873591301 0.31015411184 -0.1337692508 -0.95213576379 0.27485136866 -0.21996605376 -0.94862926758 0.22741470463 
-0.31767465494 -0.93356654545 0.16594070876 -0.42327318042 -0.90152654889 0.089942739467 -0.53068638509 -0.84756734776 0.0012456711499 
-0.6315941916 -0.76938234425 -0.095601179391 -0.71711685137 -0.66938000769 -0.19409746724 -0.78082937092 -0.55477084063 -0.2872887187 
-0.82052764142 -0.43547074787 -0.37026965502 -0.83794928846 -0.32091096463 -0.4414262597 -0.83694636509 -0.21786517168 -0.50205134094 
-0.82147291996 -0.13007660779 -0.55521375873 -0.79449237558 -0.058927002544 -0.60440836652 -0.75785110253 -0.0042963203045 -0.6524134027 
-0.71251104228 0.034670341586 -0.70080381138 -0.65947648239 0.059273157325 -0.74938472229 -0.59971982387 0.070679604003 -0.79708250918 
-0.5331112124 0.069224259894 -0.84320841851 -0.44311605309 0.048333654103 -0.89516033278 0.79138266216 -0.20610550047 0.57552932567 
0.47616177786 -0.05806352871 0.87743865195 0.42331904265 -0.017234156187 0.90581674305 0.39435641491 0.025580585728 0.91860146508 
0.37752154563 0.07391009501 0.92304646711 0.36880135183 0.12672122047 0.92082967761 0.3654122123 0.1811202024 0.91305497501 
0.3650476704 0.23310368942 0.90133393829 0.36617711424 0.27824067224 0.88797322557 0.36751191176 0.31272047685 0.87586579913 
0.36861544733 0.33368197808 0.86762837061 0.36861544733 0.33368197808 0.86762837061 
FrenetBinormal 3 128 double
0.45147209187 -0.48476998861 0.74911348167 0.45147209187 -0.48476998861 0.74911348167 0.45762110224 -0.476618873 0.7506113353 
0.46695751295 -0.46320765919 0.75325251116 0.4788285882 -0.44397948543 0.7573674139 0.49224760613 -0.4183459384 0.76333411431 
0.50579556811 -0.38604990544 0.77145078508 0.51773090757 -0.34746762262 0.78180621549 0.52624972119 -0.30398263681 0.79413839314 
0.52995521583 -0.25827743393 0.80773772744 0.52846419256 -0.21422326361 0.82148279988 0.522925813 -0.17674908924 0.83385151769 
0.51629659639 -0.15120662857 0.84295574025 0.51318952473 -0.14274907065 0.84632098788 0.51911336186 -0.1553786797 0.84046343373 
0.53887297644 -0.19051616834 0.82056048215 0.57406522461 -0.2449133545 0.78132359921 0.62084087941 -0.30919551611 0.72038512982 
0.67044923301 -0.36972676875 0.6432728367 0.71416429415 -0.41546182743 0.56334787735 0.74728834622 -0.44291284576 0.49536687279 
0.76898638888 -0.45533901214 0.44869401349 0.77949096935 -0.45861207171 0.42669520313 0.77832373573 -0.45851350752 0.42892601439 
0.76359055307 -0.45978087258 0.45335528724 0.73223652153 -0.46593830223 0.49672041941 0.68078188799 -0.47906077322 0.55410901143 
0.60707203338 -0.49933906805 0.61816182461 0.51212744046 -0.52499752096 0.67978164709 0.40073244711 -0.55304709944 0.73044672059 