# vtk DataFile Version 4.2
vtk output
ASCII
DATASET POLYDATA
POINTS 128 float
0 0 0 -0.264596 0.120221 0.165674 -0.797293 0.336018 0.488297 
-1.27041 0.464474 0.749363 -1.68721 0.500573 0.953366 -2.13417 0.484633 1.16153 
-2.59613 0.404959 1.36949 -3.03621 0.242102 1.55946 -3.44431 0.00592488 1.73385 
-3.8186 -0.285889 1.90016 -4.15977 -0.61903 2.06241 -4.46988 -0.980969 2.22333 
-4.75408 -1.36307 2.38468 -5.01839 -1.75854 2.54727 -5.26809 -2.16388 2.70877 
-5.50822 -2.57687 2.86543 -5.74379 -2.99618 3.01145 -5.98017 -3.42093 3.13883 
-6.22492 -3.85091 3.23056 -6.48463 -4.28423 3.26525 -6.75431 -4.70666 3.21521 
-7.02352 -5.10057 3.05592 -7.27614 -5.45784 2.80061 -7.49564 -5.77644 2.47749 
-7.67911 -6.06906 2.11143 -7.82911 -6.3535 1.72445 -7.94675 -6.63973 1.32816 
-8.03245 -6.93398 0.929462 -8.08686 -7.24021 0.534221 -8.11077 -7.56122 0.147761 
-8.10579 -7.89846 -0.225348 -8.07396 -8.25271 -0.580952 -8.01807 -8.6243 -0.915292 
-7.94139 -9.01332 -1.22486 -7.84797 -9.41938 -1.50659 -7.74231 -9.84188 -1.75767 
-7.6289 -10.2808 -1.97571 -7.5124 -10.736 -2.15823 -7.39858 -11.2052 -2.29975 
-7.29383 -11.685 -2.39301 -7.20354 -12.1788 -2.43105 -7.13417 -12.6899 -2.40384 
-7.11197 -13.1761 -2.26351 -7.17231 -13.5653 -1.9462 -7.30357 -13.7857 -1.49545 
-7.46346 -13.7763 -1.02175 -7.62266 -13.5846 -0.573608 -7.76109 -13.3156 -0.160969 
-7.87321 -13.0147 0.2228 -7.96205 -12.6904 0.593723 -8.02764 -12.3546 0.963006 
-8.0681 -12.0218 1.33871 -8.08198 -11.7054 1.72918 -8.06822 -11.4183 2.1427 
-8.02676 -11.18 2.58461 -7.9586 -11.0148 3.05722 -7.86998 -10.9444 3.54994 
-7.77094 -10.9873 4.04265 -7.67148 -11.1419 4.51428 -7.58119 -11.3915 4.94392 
-7.50445 -11.7161 5.3223 -7.44155 -12.0944 5.64941 -7.39111 -12.5104 5.92838 
-7.35053 -12.9528 6.16473 -7.31727 -13.4134 6.36408 -7.2889 -13.8865 6.53202 
-7.26311 -14.3682 6.67376 -7.2377 -14.8557 6.7941 -7.21048 -15.3469 6.89755 
-7.17928 -15.8403 6.98832 -7.14185 -16.3348 7.07043 -7.0959 -16.8294 7.14765 
-7.0394 -17.3231 7.2233 -6.97067 -17.8151 7.30017 -6.88851 -18.3044 7.38059 
-6.79226 -18.7903 7.46642 -6.68154 -19.2718 7.5591 -6.55615 -19.7482 7.65966 
-6.41549 -20.2183 7.76896 -6.25836 -20.6808 7.88774 -6.08277 -21.134 8.01673 
-5.88574 -21.5749 8.15677 -5.66368 -21.9999 8.30841 -5.41228 -22.4039 8.47182 
-5.12755 -22.7803 8.64652 -4.80605 -23.1208 8.83115 -4.44659 -23.4168 9.02329 
-4.05124 -23.6594 9.21911 -3.62491 -23.843 9.41486 -3.17638 -23.9672 9.60707 
-2.71409 -24.0353 9.79395 -2.24544 -24.056 9.97625 -1.77614 -24.0385 10.156 
-1.30926 -23.9921 10.3369 -0.847057 -23.9254 10.523 -0.39076 -23.8456 10.7183 
0.0585805 -23.7592 10.9265 0.500061 -23.6709 11.1501 0.933093 -23.5847 11.3905 
1.35765 -23.5034 11.6472 1.77404 -23.4292 11.9189 2.18317 -23.3646 12.2038 
2.58601 -23.3121 12.4999 2.98363 -23.2754 12.8054 3.37677 -23.2587 13.1183 
3.76547 -23.2679 13.4372 4.14884 -23.3094 13.7602 4.52406 -23.3901 14.0855 
4.88698 -23.5165 14.4106 5.23079 -23.6937 14.7327 5.54782 -23.9247 15.0487 
5.82914 -24.2074 15.3561 6.06636 -24.5375 15.6535 6.25303 -24.906 15.9418 
6.38396 -25.3029 16.2228 6.45659 -25.7175 16.4991 6.46957 -26.1395 16.7732 
6.42384 -26.5599 17.0468 6.32212 -26.9705 17.3208 6.17153 -27.3648 17.5934 
5.97809 -27.739 17.8635 5.74187 -28.0978 18.132 5.4685 -28.4423 18.3973 
5.18671 -28.7567 18.6471 4.9047 -29.0414 18.8786 4.5368 -29.3707 19.1341 
4.07829 -29.7538 19.4128 3.84226 -29.9466 19.5495 
LINES 1 129
128 0 1 2 3 4 5 6 7 8 9 10 11 12 13 14 15 16 17 18 19 20 21 22 23 24 25 26 27 28 29 30 31 32 33 34 35 36 37 38 39 40 41 42 43 44 45 46 47 48 49 50 51 52 53 54 55 56 57 58 59 60 61 62 63 64 65 66 67 68 69 70 71 72 73 74 75 76 77 78 79 80 81 82 83 84 85 86 87 88 89 90 91 92 93 94 95 96 97 98 99 100 101 102 103 104 105 106 107 108 109 110 111 112 113 114 115 116 117 118 119 120 121 122 123 124 125 126 127 

CELL_DATA 1
FIELD FieldData 2
Length 1 1 double
57.127095879 
Tortuosity 1 1 double
0.58824628437 
POINT_DATA 128
SCALARS MaximumInscribedSphereRadius float
LOOKUP_TABLE default
0.62 0.701834 0.783668 0.849148 0.913099 0.922093 0.929623 0.93 0.93 
0.93 0.93 0.936271 0.943103 1.05691 1.18262 1.33291 1.4865 1.5224 
1.5396 1.48659 1.42069 1.30292 1.17465 1.0766 0.985122 1.05308 1.15989 
1.29548 1.4389 1.5571 1.6677 1.59838 1.46925 1.43489 1.43509 1.53777 
1.68129 1.72763 1.73177 1.67834 1.5978 1.64008 1.74458 1.81077 1.85613 
1.93786 2.03495 2.13425 2.23456 2.32369 2.40733 2.3432 2.2003 2.06108 
1.92398 1.87055 1.86875 1.92471 2.01806 2.05773 2.06108 2.00908 1.91735 
1.87259 1.86392 1.87687 1.90767 1.96733 2.05264 2.14156 2.23395 2.29924 
2.33661 2.25652 2.04612 1.87343 1.74578 1.75438 1.93838 2.02056 1.96148 
1.87051 1.73182 1.66459 1.71254 1.76174 1.81308 1.84716 1.8491 1.87842 
1.9624 2.03376 2.07786 2.0887 2.02144 2.00403 2.11457 2.24175 2.41583 
2.54191 2.51891 2.51065 2.55318 2.60267 2.67885 2.72837 2.66313 2.59918 
2.54145 2.49141 2.48359 2.4663 2.38977 2.32178 2.31529 2.32752 2.49808 
2.65362 2.65586 2.65177 2.567 2.48707 2.49107 2.49631 2.54823 2.60369 
2.69685 2.79 
TEXTURE_COORDINATES TCoords 2 float
0 0 0.00787402 0 0.015748 0 0.023622 0 0.0314961 
0 0.0393701 0 0.0472441 0 0.0551181 0 0.0629921 0 
0.0708661 0 0.0787402 0 0.0866142 0 0.0944882 0 0.102362 
0 0.110236 0 0.11811 0 0.125984 0 0.133858 0 
0.141732 0 0.149606 0 0.15748 0 0.165354 0 0.173228 
0 0.181102 0 0.188976 0 0.19685 0 0.204724 0 
0.212598 0 0.220472 0 0.228346 0 0.23622 0 0.244094 
0 0.251969 0 0.259843 0 0.267717 0 0.275591 0 
0.283465 0 0.291339 0 0.299213 0 0.307087 0 0.314961 
0 0.322835 0 0.330709 0 0.338583 0 0.346457 0 
0.354331 0 0.362205 0 0.370079 0 0.377953 0 0.385827 
0 0.393701 0 0.401575 0 0.409449 0 0.417323 0 
0.425197 0 0.433071 0 0.440945 0 0.448819 0 0.456693 
0 0.464567 0 0.472441 0 0.480315 0 0.488189 0 
0.496063 0 0.503937 0 0.511811 0 0.519685 0 0.527559 
0 0.535433 0 0.543307 0 0.551181 0 0.559055 0 
0.566929 0 0.574803 0 0.582677 0 0.590551 0 0.598425 
0 0.606299 0 0.614173 0 0.622047 0 0.629921 0 
0.637795 0 0.645669 0 0.653543 0 0.661417 0 0.669291 
0 0.677165 0 0.685039 0 0.692913 0 0.700787 0 
0.708661 0 0.716535 0 0.724409 0 0.732283 0 0.740157 
0 0.748031 0 0.755906 0 0.76378 0 0.771654 0 
0.779528 0 0.787402 0 0.795276 0 0.80315 0 0.811024 
0 0.818898 0 0.826772 0 0.834646 0 0.84252 0 
0.850394 0 0.858268 0 0.866142 0 0.874016 0 0.88189 
0 0.889764 0 0.897638 0 0.905512 0 0.913386 0 
0.92126 0 0.929134 0 0.937008 0 0.944882 0 0.952756 
0 0.96063 0 0.968504 0 0.976378 0 0.984252 0 
0.992126 0 1 0 
FIELD FieldData 7
Curvature 1 128 double
0 0.046587192924 0.087051250071 0.12457079558 0.1570892783 0.18219713216 0.19780397259 0.20298037874 0.19848089272 
0.18660026498 0.17054373112 0.15379090016 0.13978988709 0.13179670926 0.13232476101 0.14206871908 0.15941247485 0.18103279731 
0.20266215298 0.21970983531 0.22814068622 0.2257220294 0.21290398352 0.19254653188 0.16876394696 0.14565341752 0.12651523327 
0.11348023891 0.10725956329 0.10711922182 0.11157208219 0.11933336438 0.12991406342 0.14371949929 0.16204958381 0.18717721672 
0.22267227642 0.27422000491 0.35064843295 0.46458734119 0.62881295281 0.83775073958 1.0279227349 1.0769111081 0.93303911333 
0.69328441941 0.47023542233 0.30286762955 0.18580649684 0.10760517798 0.072925496521 0.093591847066 0.14028486011 0.19413251293 
0.24945176173 0.30112611655 0.34232608986 0.36601267079 0.36826954749 0.35047748543 0.31844636488 0.27935164126 0.23901110596 
0.20094768655 0.16673560022 0.13675012347 0.11081681698 0.088680617828 0.07020277786 0.055650975526 0.045791765898 0.041619299863 
0.043146517948 0.048918278039 0.057193153652 0.066919672163 0.077711253894 0.089481852134 0.10228848223 0.11618192627 0.13110361857 
0.14672279452 0.16242289217 0.17719085857 0.18967317772 0.19832794758 0.20176592561 0.19910159103 0.19027371352 0.17599896526 
0.15773874007 0.1371689031 0.11588222802 0.095305772209 0.076582748268 0.060964369266 0.04981134161 0.044760612907 0.046445418532 
0.053540873309 0.064192010926 0.077174916205 0.091966842361 0.10820836769 0.12569438284 0.14402799897 0.16266352578 0.1809278383 
0.19797528637 0.21290246836 0.22486850463 0.23333669392 0.23795224627 0.23870377391 0.23576059446 0.22938268163 0.21985077882 
0.20743687578 0.19242334396 0.17517869223 0.15607186523 0.13547298463 0.11380037238 0.091293704199 0.068229929095 0.044777696294 
0.021109643102 0 
Torsion 1 128 double
0 0 0.017681640181 0.02241814731 0.025274500946 0.02498718469 0.019880830415 0.0075573296969 -0.015374075672 
-0.053412935706 -0.1115850172 -0.19249448898 -0.28786467725 -0.3664553962 -0.38312553787 -0.32620826328 -0.23224804538 -0.13943801474 
-0.062116569428 0.00067243456627 0.054921029426 0.10697722245 0.16291919022 0.22833524738 0.3072065095 0.39905581473 0.49171558831 
0.55767739472 0.5694863121 0.5296685386 0.46723147931 0.40730457416 0.35812543564 0.3175946418 0.28093511509 0.24393492715 
0.204597552 0.1624908326 0.11809895275 0.072495861089 0.027770687878 -0.01255917179 -0.046297686543 -0.076965044156 -0.1123318162 
-0.1592132244 -0.22661992104 -0.34239346312 -0.59696777479 -1.2822581431 -2.2515646677 -1.2326184201 -0.54344248882 -0.29957260767 
-0.19623494866 -0.14290149084 -0.11047891697 -0.087685933526 -0.069270106796 -0.052483342054 -0.035702695988 -0.017799127226 0.0021069951495 
0.025170877427 0.053201208541 0.089182499964 0.13844493694 0.2096893275 0.31603054934 0.46797204986 0.6382213003 0.70953386809 
0.60273682016 0.42363399401 0.27481547597 0.17246170186 0.10398639756 0.058056464975 0.02725777714 0.0071666203851 -0.004931353754 
-0.010958133312 -0.012115732477 -0.0096453279747 -0.0042200180358 0.0039235038282 0.014669120203 0.028295202282 0.045362232752 0.067238658948 
0.095722716309 0.13384489645 0.18702786484 0.26335712979 0.37665689764 0.54134659258 0.7410733428 0.85566270693 0.76507354624 
0.57451748895 0.40800527845 0.28833006547 0.20178862754 0.13635727832 0.083888686039 0.039914956076 0.0024467287914 -0.030199957608 
-0.058950576574 -0.08415214797 -0.10566650818 -0.12285833991 -0.13509576485 -0.14163706085 -0.14166277316 -0.13560086373 -0.12423554595 
-0.10865069452 -0.090521746146 -0.071871750922 -0.054466926106 -0.038610879315 -0.025694835958 -0.015970183186 -0.008945287529 -0.0049377076483 
0 0 
Abscissas 1 128 double
0 0.50263291455 1.0052658291 1.5078983662 2.010530868 2.5131665635 3.0158023441 3.5184334417 4.0210642929 
4.5236968949 5.0263296193 5.5289641571 6.0315988571 6.5342306371 7.036862092 7.5394981731 8.0421348764 8.5447665982 
9.0473975288 9.5500321812 10.052667517 10.555302163 11.057936671 11.560570466 12.063204108 12.565835632 13.06846664 
13.571097169 14.073727567 14.576360063 15.078993191 15.581628286 16.084264036 16.586896743 17.089528342 17.5921481 
18.094763138 18.597405308 19.100059259 19.602699359 20.105332937 20.607971959 21.110613739 21.613245985 22.115873045 
22.618503368 23.121135068 23.623766984 24.126398998 24.629039767 25.131684839 25.634318555 26.13694622 26.639568093 
27.142186631 27.644814745 28.147448767 28.650083822 29.152719546 29.655348072 30.157971728 30.660592704 31.163211758 
31.665847077 32.168494897 32.67113247 33.173761584 33.676397206 34.179038611 34.681671361 35.184295833 35.68692431 
36.189556914 36.692192785 37.19483228 37.69746349 38.200084802 38.702711282 39.205344412 39.707976084 40.210605731 
40.713239727 41.215880228 41.718517097 42.221148111 42.723782968 43.226424492 43.729061708 44.231690913 44.734320262 
45.2369499 45.739581847 46.242218771 46.744853317 47.247482278 47.750115114 48.252757898 48.755393846 49.25801053 
49.760629748 50.263256841 50.765890586 51.268547228 51.771197414 52.273822837 52.776449834 53.279083604 53.781716357 
54.284344175 54.78697455 55.289618965 55.792261141 56.294889335 56.797519374 57.300162703 57.802805635 58.305445216 
58.808082673 59.31069845 59.813315081 60.315942617 60.81857068 61.321207889 61.82384471 62.326467021 62.829090339 
63.331724352 63.834358364 
ParallelTransportNormals 3 128 double
0.52128462814 0 0.853382878 0.49321620652 0.0081532242822 0.8691795724 0.4651477849 0.016306448564 0.8849762668 
0.43979692138 0.017678764629 0.89751556722 0.41469996663 0.018417522197 0.90975052056 0.40242398167 0.015069710773 0.91522742764 
0.39048925362 0.011613126776 0.92052445519 0.3964341154 0.015807748117 0.91788412481 0.40331987422 0.020405007128 0.91482609825 
0.41616374375 0.033845002367 0.9084272293 0.42942409625 0.047903121246 0.90179482929 0.43857524874 0.060416003279 0.89651673586 
0.44735876848 0.072790639507 0.8913598065 0.4466265541 0.071352850317 0.89186325019 0.44483501572 0.068377414797 0.89299682591 
0.42647214892 0.03601788363 0.90275043175 0.40588003942 -0.00029451592989 0.9136636392 0.34841071512 -0.097122509305 0.92400389083 
0.28508447421 -0.20356171622 0.93425314441 0.18481771303 -0.35731967453 0.89348860874 0.077773416778 -0.51975927824 0.84336449329 
0.0062126368181 -0.62641300822 0.76682524917 -0.058163303662 -0.72177099895 0.68493736775 -0.081057821323 -0.75957780543 0.64392559656 
-0.094931914451 -0.78486970576 0.61180262046 -0.096796832712 -0.78718536415 0.6090476864 -0.095736448339 -0.78390426326 0.61344648368 
-0.093992171864 -0.76850688746 0.63223540377 -0.092061908612 -0.74981444957 0.6549377666 -0.09323994363 -0.72145654445 0.68475049963 
-0.095355252788 -0.69018412093 0.71670728884 -0.10179594511 -0.64974706707 0.75127538149 -0.10967438014 -0.60626372116 0.78671146254 
-0.1215962944 -0.55374830718 0.82120477055 -0.13499273611 -0.49793918709 0.8553542794 -0.15158361146 -0.4309704322 0.88624111038 
-0.16944770741 -0.35955372863 0.91582752035 -0.19006049022 -0.26738256694 0.93921671023 -0.21186684276 -0.1661991408 0.95991486447 
-0.23389528811 -0.010825070335 0.95645432176 -0.25602830702 0.1700649482 0.94161853033 -0.23770469545 0.44120116379 0.77889871925 
-0.19888924081 0.75804832677 0.54127360621 -0.10601665403 0.89742297426 0.2057540602 0.016260493584 0.94026084353 -0.18301549548 
0.083507692421 0.90293158789 -0.39312495784 0.12751721415 0.83174989727 -0.52779103613 0.14744339314 0.78867471992 -0.59506965318 
0.15643586807 0.75835974375 -0.63175473646 0.1585226499 0.75493767055 -0.6361869033 0.1572165402 0.76472856548 -0.62477263073 
0.15781213327 0.79712523107 -0.5780058395 0.15942131174 0.84157050882 -0.51239656809 0.17245245375 0.89029612838 -0.39493019554 
0.19206179562 0.94148690586 -0.24759799704 0.22392960869 0.95277260171 -0.06412700623 0.26335872577 0.93944393505 0.14163521412 
0.29950799748 0.8806314024 0.32252467344 0.33353437989 0.7923793075 0.48731516709 0.35789162491 0.69703658359 0.60844911538 
0.37570670769 0.5968963226 0.70004493734 0.38771732321 0.50853747826 0.76421697697 0.39556250207 0.42863328485 0.80870899731 
0.40099265641 0.36227585828 0.83966298448 0.40456658427 0.30633069334 0.86021142284 0.40722445668 0.26213110598 0.87431777675 
0.40912603594 0.2276286388 0.88310556147 0.41055398468 0.20333071495 0.88876978322 0.41156116862 0.18809832306 0.89165908807 
0.41195109105 0.18172158322 0.89289981049 0.41175065188 0.18381457105 0.8925637948 0.4105867317 0.19235256727 0.89120030483 
0.40843029322 0.20752981095 0.88877837466 0.40508561803 0.22655347851 0.88552431742 0.40042276226 0.24984420945 0.88134713287 
0.39448381581 0.27527566002 0.87634628765 0.38702043616 0.3032644399 0.87036148753 0.37777930461 0.33353951279 0.86320778479 
0.36624977094 0.36675760475 0.8545494181 0.35157217377 0.40334890667 0.84392121856 0.33252683297 0.44462032906 0.83055999765 
0.30818715999 0.48926567526 0.81430395609 0.27592761425 0.53895812589 0.7937175079 0.23620598817 0.58959185775 0.76985694065 
0.1844541012 0.64174310996 0.74071788475 0.12600905053 0.68973325056 0.70973160924 0.055954790669 0.73050599486 0.67554135432 
-0.014685996585 0.76361434641 0.64259326919 -0.086417861044 0.78246514699 0.61195590848 -0.15314340372 0.79579143989 0.58409968148 
-0.20987535088 0.79808973708 0.56179514027 -0.26123702383 0.79841735669 0.5415628158 -0.30101295804 0.79449346984 0.52580105667 
-0.33702920829 0.79034866146 0.51117096362 -0.36421843924 0.78568517157 0.49919780624 -0.38883562963 0.78134279898 0.48795855327 
-0.40684863844 0.77782495343 0.47860373324 -0.4225563735 0.77478220805 0.47021646058 -0.43176829977 0.77307820166 0.46455554642 
-0.4384269561 0.7718345471 0.46049123096 -0.43715379256 0.77202099117 0.46138680363 -0.43288054569 0.77240024256 0.46462278787 
-0.41827993254 0.77344320612 0.47591531081 -0.40042927602 0.77390125638 0.49005369766 -0.37011472307 0.77211616777 0.51510595517 
-0.33722869437 0.76844330713 0.54271793045 -0.29327947731 0.75664873761 0.58134250803 -0.24871165349 0.74203529115 0.62120531569 
-0.20114276127 0.71374652922 0.66707519193 -0.15567521799 0.68388181682 0.71194800077 -0.12174753254 0.64536254729 0.75134527161 
-0.090798053726 0.60825934443 0.7882944232 -0.078447277663 0.57999938399 0.80995523249 -0.067530316398 0.55457386487 0.82938468928 
-0.066935459646 0.54955363082 0.83275052774 -0.066172505278 0.54649906238 0.83480860463 -0.06398741722 0.56007435065 0.82580280194 
-0.061315667514 0.57401077041 0.81649379319 -0.053677826026 0.59163232153 0.80409074748 -0.046018789242 0.60879553937 0.79196775439 
-0.038089358476 0.620111679 0.78341746621 -0.030413369214 0.63100103802 0.7751834792 -0.027129756181 0.63449389356 0.77243128465 
-0.024205803748 0.63765232769 0.76993581433 -0.034755119995 0.6282829801 0.77705750625 -0.044395763656 0.61972066769 0.78356576636 
-0.044395763656 0.61972066769 0.78356576636 -0.044395763656 0.61972066769 0.78356576636 
FrenetTangent 3 128 double
-0.88545205362 0.031004848225 0.46369533115 -0.88545205362 0.031004848225 0.46369533115 -0.88700580883 -0.000293317012 0.46175817163 
-0.88750740059 -0.04950298808 0.45812669433 -0.88455914922 -0.11425590903 0.45221753481 -0.87571287908 -0.19098423666 0.44345459154 
-0.85919182786 -0.27503611682 0.43144470954 -0.83450587563 -0.36121383906 0.4160823308 -0.80268351939 -0.44461924674 0.39750835605 
-0.76600254842 -0.52146319247 0.37592051648 -0.72736784438 -0.58949977136 0.35132042144 -0.68963146777 -0.64798078155 0.32330998347 
-0.65508426252 -0.69726598093 0.29100646184 -0.62518413358 -0.73830358327 0.253086187 -0.60046527565 -0.77214219377 0.20793721491 
-0.58054243792 -0.79955179851 0.15390711249 -0.5641591334 -0.82078372702 0.089657936985 -0.5492931815 -0.83550156392 0.014633435742 
-0.53338275408 -0.84293862762 -0.070408150989 -0.51373276955 -0.84232838876 -0.16297707499 -0.48809231317 -0.83352598852 -0.2588442008 
-0.45521855194 -0.81756210854 -0.3526588559 -0.41515657402 -0.79677445107 -0.43908483595 -0.36906504226 -0.77438437994 -0.5139258961 
-0.31871749908 -0.75374320859 -0.57470891005 -0.26598602556 -0.73764298952 -0.620591858 -0.21252201266 -0.72795263992 -0.65185838045 
-0.15967890775 -0.72557593619 -0.66935955005 -0.10857310804 -0.73060949763 -0.67410803451 -0.060188750935 -0.74256709124 -0.66706178819 
-0.015458118609 -0.76059901354 -0.64903789348 0.02471120656 -0.78367261216 -0.62068236097 0.059447091916 -0.8107045852 -0.58242949684 
0.087944507592 -0.84062833204 -0.53442471028 0.10948915053 -0.87238796647 -0.47639412451 0.1234418637 -0.9048456728 -0.4074511194 
0.12918141492 -0.93655159022 -0.32585776176 0.12599595811 -0.96530152436 -0.22873125194 0.11293784491 -0.98729408274 -0.11178299233 
0.088727399223 -0.99558704726 0.030559449456 0.051981583403 -0.97768247273 0.20355563737 0.0024888427017 -0.91360421384 0.40659703161 
-0.055650616948 -0.78095355514 0.62210493773 -0.11115760693 -0.57607763471 0.80980154681 -0.15024571187 -0.33439465588 0.93037972903 
-0.16710851514 -0.10857100776 0.97994238629 -0.16533624335 0.070590135315 0.98370776119 -0.15121968002 0.1987994145 0.96830336216 
-0.12958302956 0.28304996585 0.9503109782 -0.10333922977 0.33131337241 0.9378445782 -0.074166465283 0.34927684549 0.93407977209 
-0.043128195491 0.34011228159 0.9393953346 -0.011091482007 0.30511037341 0.95225240302 0.020991597614 0.24456221487 0.9694063523 
0.051887265998 0.15886799888 0.9859354292 0.080004903231 0.04989211065 0.99554507319 0.10353531663 -0.077743338401 0.99158278098 
0.12084837811 -0.21615916679 0.96885028984 0.13104644273 -0.35528327635 0.92552721375 0.1343528042 -0.48531606441 0.86395465253 
0.13204759649 -0.59920156215 0.78963340873 0.12601633171 -0.69369913092 0.70915541308 0.11822840386 -0.76886026715 0.62839154524 
0.11038719482 -0.8267493907 0.55163403829 0.10380321856 -0.8702455369 0.48155747042 0.099405795123 -0.9022655615 0.41956566163 
0.09781127675 -0.92538060268 0.36620171262 0.099400887198 -0.94168809213 0.321470062 0.10438479114 -0.95280829991 0.28506167579 
0.11285160581 -0.95993484525 0.25649484974 0.12480760026 -0.96390246662 0.23519161926 0.14021705081 -0.9652492621 0.22052900189 
0.15903095753 -0.96427226309 0.21186825431 0.18122071512 -0.96106985363 0.20857561902 0.20680474888 -0.955572801 0.21002956417 
0.23585564153 -0.94756318548 0.21562960344 0.2685141901 -0.93667724965 0.22480182318 0.30497162966 -0.92240337395 0.23699012811 
0.34541899061 -0.90407903293 0.25164821308 0.38997814622 -0.88089343896 0.26822340441 0.43860790441 -0.85190934207 0.28613559562 
0.4909790706 -0.81612747307 0.30475481937 0.54635230988 -0.77260527206 0.32338869348 0.60348662695 -0.72063692237 0.34130091886 
0.66062023968 -0.6599955844 0.35775232704 0.71557824225 -0.59118188461 0.37209106214 0.76602707524 -0.51559377907 0.38388224104 
0.80984728441 -0.43551961293 0.39302677096 0.84551129194 -0.35390362927 0.39982855874 0.87232960055 -0.27394222269 0.4049650931 
0.89048379112 -0.19861606184 0.40937791554 0.90085550238 -0.13032364332 0.41409553465 0.90473473154 -0.070739113219 0.42006076157 
0.90353505238 -0.020828341666 0.42800769771 0.89858937115 0.019009793172 0.43837856907 0.89102997019 0.048778879099 0.45131609009 
0.88174579412 0.068712965699 0.46669356424 0.87139179201 0.079128049175 0.48416432815 0.86040830629 0.080348618354 0.50323120531 
0.84903521611 0.072653178766 0.52331703338 0.83730875121 0.056227771587 0.54383130918 0.82503791203 0.031178392259 0.56421658214 
0.81177057868 -0.0024346056416 0.58397140366 0.79676226102 -0.044529093433 0.6026500305 0.77896544 -0.09490940877 0.61984276023 
0.7570457095 -0.15314855989 0.63515928107 0.72945393024 -0.21842536524 0.64821857693 0.69456482407 -0.28941728896 0.65864811396 
0.65086943085 -0.36422513712 0.66611488009 0.59721475742 -0.44037891073 0.67037373793 0.53304509003 -0.51496961422 0.67131902135 
0.45856684287 -0.58492056396 0.66901747696 0.37481657271 -0.64731341465 0.66370014316 0.2835983123 -0.69971233903 0.65572451522 
0.18730152727 -0.74042908675 0.64550980269 0.088667727493 -0.76867829228 0.63346011483 -0.0094679403564 -0.7845927367 0.61993918703 
-0.10441283291 -0.78914410483 0.60526815721 -0.19379798047 -0.78398931305 0.58974833599 -0.27571986284 -0.77126078944 0.57370319148 
-0.34880020213 -0.75332401182 0.55753148091 -0.41216471053 -0.73256137163 0.54173248767 -0.46538554744 -0.71120819756 0.52687682807 
-0.5083658635 -0.69121684966 0.51359849647 -0.5412149236 -0.67419557988 0.50254027355 -0.56414533101 -0.66137794653 0.49428661457 
-0.57737544461 -0.65361865896 0.48930588043 -0.57737544461 -0.65361865896 0.48930588043 
FrenetNormal 3 128 double
-0.065260877366 -0.99618063735 -0.058009961742 -0.065260877366 -0.99618063735 -0.058009961742 -0.034555914831 -0.99715352514 -0.067012954351 
0.013514332825 -0.9965812935 -0.081505142483 0.076473703834 -0.99193944706 -0.10103418224 0.15059007617 -0.98066579393 -0.12496891444 
0.23086080878 -0.96091133538 -0.15281587781 0.31137711879 -0.93215849072 -0.18472909371 0.38589359054 -0.89537057445 -0.22225586875 
0.44825923032 -0.85244483359 -0.26907520902 0.49226722273 -0.80489276773 -0.33139193393 0.51087855971 -0.75176074657 -0.41696387989 
0.49589553533 -0.68737176191 -0.53066720171 0.44186709221 -0.60211942741 -0.66498546447 0.35712479872 -0.49160511372 -0.7942205552 
0.26882250185 -0.36663660998 -0.89068067158 0.20547154053 -0.24473640462 -0.94756822355 0.17922189114 -0.13489608322 -0.97451657783 
0.18846027767 -0.037280063034 -0.98137297733 0.22669748123 0.049936938594 -0.97268420064 0.28724519565 0.12663924237 -0.9494486294 
0.36500712938 0.18991280223 -0.91142905541 0.45657539342 0.23497914298 -0.8580930675 0.56046965301 0.25566398914 -0.78772437611 
0.67513991794 0.24504827014 -0.69579985377 0.79538339056 0.19578514253 -0.57361436522 0.90587899204 0.10333537947 -0.41073720447 
0.97846199848 -0.026470837018 -0.20472276944 0.98491701417 -0.17096143539 0.026658259675 0.92062353356 -0.2995738304 0.25041531421 
0.80655564523 -0.39312982249 0.44149397937 0.66828586907 -0.44880599528 0.59326821573 0.52265237022 -0.47181792708 0.71008615223 
0.37909243559 -0.46788913641 0.79835373195 0.24353923856 -0.44112281759 0.8637703972 0.12069189441 -0.39385398937 0.91121484935 
0.014345760429 -0.32681173468 0.94498057612 -0.073273686385 -0.23899450324 0.9682523402 -0.14143534462 -0.12733135415 0.98172438573 
-0.1904168685 0.01316050039 0.98161510656 -0.2203216326 0.18758136953 0.95722077287 -0.22962098251 0.39521184837 0.88942779319 
-0.21470805505 0.61785406349 0.75641047542 -0.17323039531 0.81360821723 0.55500711617 -0.10960740619 0.94089473247 0.32047358537 
-0.032049973074 0.99399127147 0.10466208225 0.057732874714 0.99641749772 -0.061798749353 0.17101197532 0.97005920685 -0.17245300666 
0.34072512043 0.91274383893 -0.22539981543 0.64097873323 0.74317880648 -0.19191541143 0.99077534555 0.13233467452 0.029184731776 
0.79554064352 -0.55710300244 0.23822537476 0.53955186118 -0.799954093 0.2625971024 0.38774708018 -0.89571918052 0.21757608201 
0.28835624119 -0.94759713055 0.13751493137 0.21339883247 -0.97644795438 0.031785699407 0.15056719827 -0.98422627163 -0.092887916583 
0.094752890573 -0.9690351339 -0.22801929523 0.044639334194 -0.93051662653 -0.36351910211 0.00087611517802 -0.87180079433 -0.48985978344 
-0.0351844475 -0.79894033267 -0.60038021243 -0.062125787625 -0.7189694533 -0.69225956962 -0.078636839864 -0.63809196414 -0.76593400023 
-0.083380526884 -0.56077277307 -0.82376063558 -0.07440688178 -0.48961096609 -0.86876044905 -0.048766841758 -0.42556499664 -0.90361287551 
-0.0013860290139 -0.36809242527 -0.92978817232 0.075999468028 -0.31494148178 -0.94606339318 0.19616887156 -0.26127079001 -0.94512186945 
0.37354510957 -0.19821858805 -0.90618620739 0.60522002424 -0.11387527833 -0.78787127327 0.83004333671 -0.0068306987737 -0.55765706374 
0.95730963451 0.098142593841 -0.27189390384 0.98341886998 0.17856250074 -0.031666378185 0.96288243075 0.23684354592 0.12947030283 
0.931566139 0.28363421697 0.22745584106 0.90198531476 0.32640205123 0.2826379184 0.87638558162 0.36921010938 0.30924457546 
0.85346496441 0.41413994015 0.31636318448 0.83093651492 0.46217471498 0.30974027991 0.80630743845 0.51364749947 0.29331648606 
0.77724959896 0.56837003999 0.26988619557 0.74176973361 0.6256482597 0.2415407159 0.69828379328 0.68428542538 0.21012663004 
0.64596976646 0.74254853884 0.1770444246 0.58468186473 0.79837230449 0.1440443698 0.51520454492 0.84958488541 0.11300353695 
0.43909967457 0.89429363717 0.086199572565 0.35845581626 0.93119540752 0.066215865267 0.27538295713 0.95970212879 0.056000454547 
0.19131426585 0.97974261984 0.059188263706 0.10666303145 0.99108219367 0.079869162453 0.020098833772 0.99210568906 0.12378343431 
-0.071492382018 0.97749189787 0.19849037485 -0.17273619471 0.93371642155 0.31358547664 -0.2870992888 0.83066750239 0.47703825722 
-0.40538143508 0.6162915127 0.67516713743 -0.48690578033 0.26017991854 0.83380403637 -0.48955761711 -0.14392962469 0.86001023404 
-0.43766167894 -0.45813320369 0.77367061626 -0.3787152558 -0.65776105193 0.65109534907 -0.33531055443 -0.77667773226 0.53323403145 
-0.31232288481 -0.84676802428 0.43062550863 -0.30973628733 -0.88641040788 0.3440058446 -0.32576911716 -0.90586950797 0.27069340005 
-0.35881483675 -0.90987348102 0.20828384833 -0.40673653118 -0.90042018554 0.1543012757 -0.46698559466 -0.87779946055 0.10673594258 
-0.53664771368 -0.84135118417 0.064322750969 -0.61221911947 -0.79025135384 0.02627827064 -0.68976339129 -0.72399405045 -0.0076862827976 
-0.76500723002 -0.64291507288 -0.037737873269 -0.83374595242 -0.5484225675 -0.064034164938 -0.89225950359 -0.44308069188 -0.086904998395 
-0.93772791092 -0.33048417799 -0.10698865909 -0.96850791073 -0.21508205829 -0.12542780816 -0.98454851222 -0.10109538966 -0.14298233905 
-0.98696042878 0.0072540561747 -0.16079953573 -0.97796517042 0.10681711404 -0.17937176365 -0.96033372736 0.19513618188 -0.19920091016 
-0.93709048833 0.27136242752 -0.21959929328 -0.91109271993 0.33498036001 -0.24020452556 -0.88491611042 0.38626551392 -0.26023533633 
-0.86073207086 0.42624123584 -0.27831405113 -0.84031596339 0.4556054975 -0.2937562124 -0.82500667222 0.47561329288 -0.30521465633 
-0.81576001302 0.48694215234 -0.31212648306 -0.81576001302 0.48694215234 -0.31212648306 
FrenetBinormal 3 128 double
0.46012572046 -0.081626203896 0.88409359471 0.46012572046 -0.081626203896 0.88409359471 0.46046344465 -0.075397355828 0.88447083325 
0.46059524172 -0.066145140517 0.88514227313 0.46011616377 -0.05478796046 0.88616668592 0.45874784182 -0.042657027144 0.88754199656 
0.45660999761 -0.031694478791 0.88910222702 0.45458138262 -0.024598996762 0.89036546201 0.45473652205 -0.025005196146 0.8902749214 
0.46076431963 -0.037602454449 0.88672560422 0.47813073566 -0.068100308482 0.87564453267 0.51323633532 -0.1223792738 0.84947735547 
0.57004581135 -0.2033229273 0.79605751061 0.64334926124 -0.30390790391 0.70266757005 0.71547420001 -0.40264232858 0.57094292566 
0.76857331483 -0.47570423345 0.42778562622 0.79969113927 -0.51615711341 0.30671797477 0.81618411801 -0.53267267944 0.22383766906 
0.82461237039 -0.53671656111 0.17874499051 0.82745809168 -0.53664624069 0.16529948234 0.82416994085 -0.53777033086 0.17761469491 
0.81212429188 -0.54362241144 0.21196416751 0.78688241127 -0.55671830981 0.2662344725 0.74139379728 -0.57876139882 0.33966230377 
0.66528583855 -0.60977251562 0.43078095618 0.54462528056 -0.64618186138 0.53463287011 0.36635726541 -0.67779551 0.63747596088 