# vtk DataFile Version 4.2
vtk output
ASCII
DATASET POLYDATA
POINTS 128 float
0 0 0 -0.310274 -0.121898 0.0351016 -0.92043 -0.354032 0.126055 
-1.43019 -0.530898 0.252987 -1.84812 -0.663444 0.404412 -2.28601 -0.806986 0.571919 
-2.74031 -0.966269 0.748996 -3.18159 -1.13586 0.928838 -3.60986 -1.32869 1.10076 
-4.03012 -1.56221 1.25169 -4.42894 -1.84922 1.36234 -4.78906 -2.19707 1.41517 
-5.10374 -2.59199 1.41224 -5.37226 -3.01446 1.36306 -5.60839 -3.45135 1.28291 
-5.82939 -3.89262 1.18696 -6.04421 -4.33354 1.07816 -6.25788 -4.7712 0.954205 
-6.46983 -5.20264 0.807249 -6.67658 -5.62463 0.627395 -6.86978 -6.03238 0.405131 
-7.03897 -6.42047 0.132327 -7.17258 -6.78305 -0.190669 -7.25949 -7.11494 -0.559003 
-7.29493 -7.41658 -0.960988 -7.27754 -7.69127 -1.38232 -7.2104 -7.94509 -1.81159 
-7.09876 -8.18536 -2.23911 -6.94862 -8.41932 -2.65813 -6.76633 -8.65414 -3.06346 
-6.558 -8.89705 -3.4512 -6.32978 -9.15532 -3.81793 -6.08977 -9.43637 -4.15878 
-5.84718 -9.74805 -4.46798 -5.61274 -10.102 -4.73856 -5.40055 -10.5106 -4.9603 
-5.25144 -10.974 -5.09674 -5.21815 -11.4801 -5.1001 -5.31453 -11.9661 -4.96472 
-5.52832 -12.3456 -4.71206 -5.82098 -12.6006 -4.38049 -6.1417 -12.7518 -4.01521 
-6.46501 -12.8135 -3.63506 -6.7801 -12.7962 -3.24352 -7.07494 -12.7094 -2.84394 
-7.33685 -12.5619 -2.43953 -7.55523 -12.3643 -2.03118 -7.72096 -12.1283 -1.61834 
-7.82622 -11.8686 -1.1999 -7.86419 -11.6019 -0.774507 -7.82992 -11.3472 -0.341155 
-7.71977 -11.1259 0.100327 -7.5307 -10.9714 0.542681 -7.26181 -10.9246 0.971933 
-6.93615 -11.0108 1.35408 -6.59372 -11.2411 1.64283 -6.26729 -11.5888 1.82238 
-5.98269 -12.0015 1.90019 -5.74543 -12.446 1.89544 -5.54636 -12.9045 1.83508 
-5.37751 -13.3684 1.73984 -5.23208 -13.8358 1.62554 -5.10345 -14.307 1.50776 
-4.98506 -14.7842 1.40205 -4.8694 -15.2675 1.32609 -4.74823 -15.7554 1.29891 
-4.61403 -16.2398 1.33321 -4.4601 -16.7075 1.43542 -4.2828 -17.1497 1.59909 
-4.08123 -17.562 1.80633 -3.8545 -17.9447 2.04082 -3.60154 -18.3019 2.28839 
-3.32093 -18.6357 2.53866 -3.01083 -18.9456 2.78506 -2.67023 -19.2292 3.02288 
-2.29897 -19.482 3.24924 -1.89886 -19.6995 3.46311 -1.47386 -19.8767 3.66541 
-1.02944 -20.0114 3.85879 -0.572664 -20.104 4.04775 -0.110107 -20.1577 4.23738 
0.352428 -20.1788 4.43332 0.810628 -20.1741 4.63989 1.26205 -20.1509 4.85965 
1.70555 -20.1153 5.09333 2.14163 -20.0719 5.3393 2.57145 -20.0239 5.59512 
2.99706 -19.9732 5.85743 3.42054 -19.9212 6.12282 3.84405 -19.8681 6.38798 
4.26932 -19.8145 6.65025 4.69739 -19.7613 6.9079 5.12898 -19.7102 7.16007 
5.56426 -19.6643 7.4071 6.00279 -19.6279 7.65002 6.44311 -19.6079 7.89089 
6.88339 -19.6129 8.13253 7.32124 -19.6548 8.37893 7.74579 -19.7527 8.63414 
8.13014 -19.9385 8.90197 8.44324 -20.2279 9.17899 8.64952 -20.6017 9.44737 
8.7349 -21.0329 9.69416 8.72943 -21.4875 9.9196 8.6631 -21.9412 10.1269 
8.5548 -22.3908 10.3224 8.41951 -22.8363 10.5115 8.26672 -23.2779 10.697 
8.10445 -23.7163 10.8814 7.93898 -24.1534 11.0656 7.77606 -24.5914 11.2504 
7.62084 -25.0322 11.4352 7.47803 -25.4777 11.6187 7.35156 -25.9295 11.7988 
7.24435 -26.3887 11.9731 7.1571 -26.8551 12.1385 7.08937 -27.3284 12.2926 
7.03865 -27.8084 12.4341 7.00196 -28.2938 12.562 6.97601 -28.7813 12.6766 
6.95731 -29.2699 12.7789 6.94161 -29.7671 12.8728 6.92589 -30.2728 12.9609 
6.91156 -30.7558 13.0395 6.89682 -31.2121 13.1105 6.86506 -31.7594 13.2 
6.81192 -32.4069 13.3132 6.78213 -32.7347 13.372 
LINES 1 129
128 0 1 2 3 4 5 6 7 8 9 10 11 12 13 14 15 16 17 18 19 20 21 22 23 24 25 26 27 28 29 30 31 32 33 34 35 36 37 38 39 40 41 42 43 44 45 46 47 48 49 50 51 52 53 54 55 56 57 58 59 60 61 62 63 64 65 66 67 68 69 70 71 72 73 74 75 76 77 78 79 80 81 82 83 84 85 86 87 88 89 90 91 92 93 94 95 96 97 98 99 100 101 102 103 104 105 106 107 108 109 110 111 112 113 114 115 116 117 118 119 120 121 122 123 124 125 126 127 

CELL_DATA 1
FIELD FieldData 2
Length 1 1 double
56.406464463 
Tortuosity 1 1 double
0.56662371046 
POINT_DATA 128
SCALARS MaximumInscribedSphereRadius float
LOOKUP_TABLE default
1.24 1.25011 1.26022 1.26831 1.27623 1.27684 1.27718 1.27065 1.26371 
1.25293 1.24185 1.24929 1.25859 1.34048 1.43077 1.38171 1.31324 1.15582 
0.983763 1.04407 1.14865 1.13786 1.10215 1.06051 1.01745 1.08497 1.18172 
1.22629 1.2556 1.25486 1.24438 1.24103 1.24023 1.29069 1.36121 1.49453 
1.65445 1.58247 1.40802 1.38575 1.4247 1.44287 1.45242 1.36784 1.24157 
1.19158 1.1779 1.20779 1.25997 1.38494 1.54993 1.58722 1.5496 1.46897 
1.36197 1.38778 1.49441 1.48211 1.39646 1.34881 1.32607 1.36419 1.44529 
1.49996 1.53444 1.57378 1.61712 1.74875 1.95763 2.05095 2.03644 1.9931 
1.92082 1.87775 1.8662 1.86 1.86 1.86 1.86 1.82432 1.74093 
1.6769 1.64079 1.64934 1.72751 1.75385 1.6927 1.6185 1.52036 1.49475 
1.61404 1.73382 1.85468 1.96876 2.06667 2.14383 2.16665 2.17407 2.13713 
2.08554 1.98808 1.95792 2.14198 2.28858 2.30783 2.29701 2.17284 2.07219 
2.07142 2.07834 2.12243 2.16058 2.16563 2.16398 2.11887 2.06914 1.98368 
1.91236 1.97477 2.03721 2.10014 2.15945 2.15846 2.15112 1.97336 1.78789 
1.51394 1.24 
TEXTURE_COORDINATES TCoords 2 float
0 0 0.00787402 0 0.015748 0 0.023622 0 0.0314961 
0 0.0393701 0 0.0472441 0 0.0551181 0 0.0629921 0 
0.0708661 0 0.0787402 0 0.0866142 0 0.0944882 0 0.102362 
0 0.110236 0 0.11811 0 0.125984 0 0.133858 0 
0.141732 0 0.149606 0 0.15748 0 0.165354 0 0.173228 
0 0.181102 0 0.188976 0 0.19685 0 0.204724 0 
0.212598 0 0.220472 0 0.228346 0 0.23622 0 0.244094 
0 0.251969 0 0.259843 0 0.267717 0 0.275591 0 
0.283465 0 0.291339 0 0.299213 0 0.307087 0 0.314961 
0 0.322835 0 0.330709 0 0.338583 0 0.346457 0 
0.354331 0 0.362205 0 0.370079 0 0.377953 0 0.385827 
0 0.393701 0 0.401575 0 0.409449 0 0.417323 0 
0.425197 0 0.433071 0 0.440945 0 0.448819 0 0.456693 
0 0.464567 0 0.472441 0 0.480315 0 0.488189 0 
0.496063 0 0.503937 0 0.511811 0 0.519685 0 0.527559 
0 0.535433 0 0.543307 0 0.551181 0 0.559055 0 
0.566929 0 0.574803 0 0.582677 0 0.590551 0 0.598425 
0 0.606299 0 0.614173 0 0.622047 0 0.629921 0 
0.637795 0 0.645669 0 0.653543 0 0.661417 0 0.669291 
0 0.677165 0 0.685039 0 0.692913 0 0.700787 0 
0.708661 0 0.716535 0 0.724409 0 0.732283 0 0.740157 
0 0.748031 0 0.755906 0 0.76378 0 0.771654 0 
0.779528 0 0.787402 0 0.795276 0 0.80315 0 0.811024 
0 0.818898 0 0.826772 0 0.834646 0 0.84252 0 
0.850394 0 0.858268 0 0.866142 0 0.874016 0 0.88189 
0 0.889764 0 0.897638 0 0.905512 0 0.913386 0 
0.92126 0 0.929134 0 0.937008 0 0.944882 0 0.952756 
0 0.96063 0 0.968504 0 0.976378 0 0.984252 0 
0.992126 0 1 0 
FIELD FieldData 7
Curvature 1 128 double
0 0.013088696311 0.025591765205 0.039542943718 0.05564300361 0.074227891948 0.094982844683 0.11681908717 0.13796897735 
0.15630597698 0.16991817117 0.1777949145 0.18027895563 0.17898170246 0.17622381377 0.17420745356 0.17438882055 0.17720500491 
0.18208246516 0.18766236657 0.1921453059 0.19358927563 0.1904101714 0.18174401635 0.1677690714 0.14972619453 0.12993575732 
0.11200615306 0.10152030198 0.1055123027 0.12833553512 0.17046776893 0.23334038248 0.32218910844 0.44504073847 0.6068147521 
0.79388670796 0.95372393755 1.0085354515 0.92938693876 0.77065171369 0.60500118631 0.4692858928 0.3696765888 0.30119996176 
0.25852804948 0.23897893414 0.24220458723 0.26863848018 0.31842378445 0.39056833135 0.47999855278 0.57174121274 0.63777556623 
0.6476706286 0.59245046049 0.49337567648 0.38214743224 0.28011675472 0.19472460247 0.12558984799 0.070470061037 0.032634278644 
0.038331221482 0.067414073959 0.095167007696 0.11809962931 0.13551301593 0.14766819248 0.15550543304 0.16031534279 0.16320230663 
0.16477173713 0.16504486082 0.16360782307 0.15999599439 0.15384790323 0.14521558073 0.13445577217 0.122125739 0.10887033888 
0.095323093279 0.08180294118 0.06857456428 0.055668373257 0.043065711645 0.030679385888 0.01900553682 0.011845364189 0.018773730079 
0.033899899377 0.052846618569 0.075728486857 0.10328048167 0.1363876227 0.1755495049 0.22024805589 0.26779095687 0.31238266485 
0.34532559716 0.35782871093 0.34596740675 0.31309192125 0.26764507736 0.21848615395 0.17168454877 0.13022187566 0.094999645293 
0.066178846 0.044186622441 0.031112154585 0.029365635814 0.034969840795 0.041778350212 0.047041329154 0.049911840108 0.050291243555 
0.048414923038 0.044695083066 0.03967888225 0.033921927247 0.027945206822 0.02214804792 0.016796669776 0.011954050316 0.0075716804146 
0.0034948099903 0 
Torsion 1 128 double
0 0 -0.18333566717 -0.20823016431 -0.20829221353 -0.19131425336 -0.16794191984 -0.1459944546 -0.12955793041 
-0.12015587155 -0.11792936102 -0.12201285433 -0.13031692185 -0.13889692595 -0.1418587674 -0.13299413218 -0.1088404749 -0.071300044437 
-0.026523965372 0.019251848013 0.062483915489 0.10293699365 0.14328635074 0.18860451964 0.24715320451 0.33265528208 0.46618864455 
0.66669022653 0.88519062366 0.9303240954 0.74967640806 0.53330635876 0.37408825305 0.26505905078 0.1846695051 0.11823884949 
0.05846675692 0.002320658982 -0.053997459569 -0.11635626877 -0.18829685059 -0.26890308983 -0.35706824002 -0.45461080605 -0.56248578011 
-0.67046868021 -0.74679572149 -0.75240647943 -0.68477217878 -0.58101156241 -0.47703831277 -0.38779701215 -0.31607986132 -0.26124826628 
-0.22166434413 -0.195139888 -0.17962608543 -0.17541444524 -0.18741086454 -0.22982283827 -0.34938909766 -0.76317357595 -2.7104274857 
-1.6985955845 -0.54777545422 -0.31025670057 -0.24323042597 -0.22436241045 -0.22129654554 -0.21989994891 -0.21153273864 -0.1915338052 
-0.15950908082 -0.11868225347 -0.073618746787 -0.028553694955 0.013717553182 0.051768903036 0.084741141301 0.11212779243 0.13355366241 
0.14880655008 0.15856126834 0.16554212787 0.17773698012 0.21666915039 0.35252103478 0.89211354137 2.4357123618 1.0000157946 
0.27280271467 0.066690685406 -0.011003353925 -0.044088030216 -0.057660389794 -0.061818971596 -0.061062334624 -0.058203512965 -0.054238709063 
-0.049811434561 -0.045165033837 -0.039871168182 -0.033072079698 -0.023245998095 -0.0080549962741 0.016899601656 0.059966127948 0.13954929227 
0.29930426962 0.63150029674 1.1043200803 0.99030077297 0.50567815041 0.22272907996 0.084055907356 0.0099916623256 -0.034944617855 
-0.065678926247 -0.089514716617 -0.11051407508 -0.1297607197 -0.14614241096 -0.15685676179 -0.15790254204 -0.14364902022 -0.11310687481 
0 0 
Abscissas 1 128 double
0 0.50247974058 1.0049594812 1.5074391141 2.0099187379 2.5123986985 3.0148786715 3.5173594224 4.0198402193 
4.5223170139 5.0247934809 5.5272752438 6.0297575367 6.5322338126 7.034709391 7.5371894162 8.0396700606 8.5421503479 
9.0446305764 9.5471097449 10.049588711 10.552070631 11.054553188 11.557033732 12.059513794 12.56199217 13.064470101 
13.566950053 14.069430597 14.571910399 15.07438996 15.576871114 16.079352837 16.581835 17.084317336 17.586784142 
18.089244374 18.591717858 19.094197198 19.596676228 20.099155134 20.601637417 21.104121103 21.606607204 22.109094373 
22.611566723 23.114032017 23.616505192 24.118982402 24.621472918 25.12397075 25.626457304 26.128937241 26.631418274 
27.133899979 27.636396449 28.138901903 28.641385474 29.143855545 29.646323371 30.148789729 30.651258735 31.153729611 
31.656204024 32.158681138 32.661178394 33.163692211 33.666190914 34.168676393 34.671154879 35.17362684 35.676104361 
36.17858746 36.681065335 37.183537573 37.686007584 38.188475014 38.690950777 39.193436909 39.695919253 40.198396534 
40.700873732 41.20335081 41.705830361 42.208313764 42.710795506 43.21327444 43.715751857 44.218226487 44.720705745 
45.223194245 45.725678701 46.228154339 46.730630852 47.233109449 47.735587874 48.238065847 48.74054441 49.243024672 
49.745500646 50.247963196 50.750436646 51.252944786 51.75544554 52.257921184 52.76039225 53.262846057 53.765304299 
54.267781377 54.770258278 55.272734325 55.775216799 56.277735068 56.780245753 57.282707171 57.785168489 58.287629041 
58.790091976 59.292577449 59.795063377 60.297554763 60.800044949 61.30251508 61.804984914 62.307446796 62.809910801 
63.312399152 63.814887504 
ParallelTransportNormals 3 128 double
0.13820246415 0 0.99040399782 0.20547103981 0.024073366308 0.97542572485 0.27273961547 0.048146732616 0.96044745188 
0.30662051425 0.059645455465 0.94936434884 0.3376607393 0.070074308749 0.93861265271 0.34257841002 0.071895690561 0.93672318235 
0.34653369581 0.073399963233 0.93516020657 0.31389583902 0.056007065491 0.94688733467 0.27909499707 0.037497174343 0.95940002792 
0.21630873282 -0.015937024424 0.972276816 0.15123224209 -0.072229303136 0.9851834003 0.1083024927 -0.12868755833 0.98327758143 
0.067589326392 -0.18516242548 0.97988924548 0.050434036196 -0.21522209909 0.9747641595 0.03601009876 -0.24221913618 0.96943771084 
0.021078074018 -0.27232406739 0.96133417707 0.0060753057327 -0.30286172629 0.95284397581 -0.021191457575 -0.35905915478 0.93033507344 
-0.05047585736 -0.41947805328 0.90551985549 -0.086607503747 -0.50111181558 0.8541608908 -0.12404373403 -0.58678757772 0.79774463132 
-0.14916145416 -0.66641247012 0.72166426131 -0.17161870193 -0.74473053471 0.64133696355 -0.17582061582 -0.79607199933 0.57389132963 
-0.17564940886 -0.84095113724 0.50953153753 -0.17065273597 -0.86309843579 0.47424603445 -0.1643801036 -0.8792349353 0.4466484138 
-0.16489712994 -0.88018199816 0.44501297701 -0.16740103065 -0.87668413917 0.45097491735 -0.18280137988 -0.85838928066 0.47732738672 
-0.20237550026 -0.83530556187 0.51027899087 -0.23969873364 -0.78690181293 0.56148797403 -0.28335484571 -0.72946388412 0.61921118504 
-0.34740865291 -0.60860966532 0.69177183549 -0.41944243839 -0.46294575044 0.77013718317 -0.46325336245 -0.18452038725 0.80461271067 
-0.49511749389 0.15010315749 0.82050959118 -0.41642174433 0.45063964198 0.71736551029 -0.28886572566 0.73611186516 0.56161307495 
-0.15953102577 0.87437357777 0.40958130056 -0.02948072741 0.95340960396 0.25904642132 0.077032195288 0.97732841265 0.12947264625 
0.17376847912 0.97835337208 0.0086054130143 0.24954419995 0.95559261533 -0.099459523222 0.31603620886 0.92229684878 -0.20185415197 
0.3594897648 0.88279749944 -0.28841190764 0.39197566336 0.84034488016 -0.36743038111 0.40594745393 0.80905002841 -0.42238795494 
0.41043859492 0.78346881321 -0.46502449455 0.41393325864 0.77826061327 -0.47200576373 0.41688004394 0.78425380818 -0.45938322084 
0.45074678125 0.79234118034 -0.40006960033 0.50275183942 0.80165704274 -0.31336597133 0.58802609646 0.76432452714 -0.22149753806 
0.69370142788 0.69838666301 -0.12646198445 0.777360045 0.61446419709 -0.075187007472 0.84762245477 0.51959888788 -0.050538426705 
0.89226920182 0.44465528546 -0.044738598622 0.92111290093 0.38200196383 -0.050567114716 0.93980701788 0.33474528273 -0.057842801625 
0.95185516385 0.29757035913 -0.066066099487 0.95959918417 0.27154146052 -0.071609446882 0.96430391044 0.25338316097 -0.07526038729 
0.96510267225 0.25028543919 -0.07662813119 0.96291838513 0.25868972692 -0.076252160582 0.95477878908 0.28375567707 -0.080507766979 
0.94174215098 0.32252248853 -0.088571912562 0.9228363649 0.36685687901 -0.1048085293 0.8987954992 0.4160624981 -0.12819546671 
0.86957569791 0.46468593975 -0.15620244717 0.83552363851 0.51276617485 -0.18852020542 0.7940810649 0.56096208227 -0.22376606244 
0.7452247664 0.6092740253 -0.26194921425 0.68736864061 0.65611898508 -0.30149516303 0.61980154824 0.70138104499 -0.34251159292 
0.54747824132 0.74048674408 -0.38188827132 0.46964132506 0.77245572376 -0.41936407895 0.39761281161 0.79603167612 -0.45237920957 
0.33281151299 0.80916444581 -0.47984405859 0.28142160744 0.81738910482 -0.50176660949 0.24796063988 0.81905238638 -0.51627997336 
0.22554151946 0.81990955373 -0.52616024615 0.21903406294 0.81960508405 -0.52936408275 0.216544916 0.81956236628 -0.53048450504 
0.22031714487 0.81992751332 -0.52835852738 0.22350056304 0.82025267889 -0.5265253708 0.22568976266 0.82051033495 -0.52518664842 
0.22604945031 0.82054554741 -0.52497548791 0.22305319951 0.82017272373 -0.526832654 0.21997358477 0.81979372893 -0.52871706896 
0.21672744032 0.81940240659 -0.5306559169 0.21672929953 0.81934488485 -0.53072271307 0.22381216125 0.82001508483 -0.52670823208 
0.2385353396 0.82069218057 -0.51850098044 0.27149290742 0.8213857337 -0.50028725699 0.31952199232 0.81806037914 -0.47289672773 
0.407039724 0.80420514723 -0.42146219271 0.51256478707 0.76882518614 -0.35231718784 0.66992292101 0.67148752635 -0.232193611 
0.81100295561 0.5506710329 -0.10869978876 0.90112366918 0.35635299628 0.025344738081 0.969162987 0.17779275181 0.14272009616 
0.96692361314 0.049384999 0.20704231462 0.96201777573 -0.06290104993 0.26245866739 0.94804628955 -0.12037528438 0.28759616989 
0.93553067458 -0.1700833302 0.30927141305 0.9285039844 -0.19051129601 0.31789324791 0.92300024924 -0.2065476151 0.32466213654 
0.92396302058 -0.20393688818 0.32356336736 0.92588872668 -0.19840765858 0.32125953927 0.93246900054 -0.17877117146 0.31313078033 
0.93923978161 -0.15754030826 0.3044598574 0.94707144947 -0.1274307645 0.29276975922 0.95453620226 -0.097382828684 0.2812896822 
0.95961760644 -0.06773507588 0.27117382726 0.96433917019 -0.039192107038 0.26157009485 0.96627876236 -0.01919036187 0.25592564612 
0.96807217011 -0.00032720640568 0.2506460801 0.96848338946 0.0077704690709 0.24881651673 0.96885943423 0.015136984385 0.24714763703 
0.96881251126 0.013711439193 0.2474109476 0.96875173405 0.011927113724 0.24773153633 0.96845916687 0.0041401758919 0.2490104236 
0.96813791414 -0.0039750044219 0.25034533311 0.96704617374 -0.020906705999 0.25318498795 0.9660420085 -0.036480212345 0.25579685673 
0.9660420085 -0.036480212345 0.25579685673 0.9660420085 -0.036480212345 0.25579685673 
FrenetTangent 3 128 double
-0.90166286354 -0.35886342679 0.24129053322 -0.90166286354 -0.35886342679 0.24129053322 -0.89797299373 -0.36767564898 0.24178320803 
-0.89188338411 -0.38251567101 0.2413002084 -0.8831941414 -0.40395794981 0.23829830757 -0.87155736506 -0.43244578088 0.23103767227 
-0.8564447165 -0.46803299273 0.21782462053 -0.83717391972 -0.51013083471 0.19724695085 -0.81303715337 -0.5573270991 0.16839564082 
-0.78353609717 -0.60736917341 0.13104911913 -0.74865482173 -0.65738993958 0.085757945677 -0.70902941305 -0.70437074406 0.033751242114 
-0.66587753322 -0.74569538555 -0.023355999661 -0.6206718685 -0.77956210503 -0.083960443412 -0.57468707786 -0.80509767686 -0.14680767438 
-0.52862181552 -0.82218297109 -0.21112588236 -0.4824324854 -0.83114021254 -0.27652277326 -0.4353894107 -0.83245503225 -0.34271661811 
-0.38631352684 -0.82662547317 -0.40920922043 -0.33393187861 -0.8141622192 -0.47500461184 -0.2772665947 -0.79572040687 -0.53847216228 
-0.21599088951 -0.77229862803 -0.59741339523 -0.15066115722 -0.74541521355 -0.64935150351 -0.082738175141 -0.71716885314 -0.69197054161 
-0.014390759948 -0.69012596388 -0.72354616992 0.05185385518 -0.66705942273 -0.74319775582 0.11347530369 -0.65063614467 -0.75086347807 
0.16820841407 -0.6431534906 -0.74703381247 0.21411337349 -0.64638940234 -0.73234978244 0.2494873276 -0.66156109688 -0.7071725309 
0.27265891391 -0.68931752014 -0.67119183033 0.28170384432 -0.72968617879 -0.62305780195 0.2741229444 -0.78182202488 -0.56000976132 
0.24654344074 -0.84331570429 -0.47753005636 0.19465466477 -0.90872073855 -0.36923729608 0.11402640323 -0.96699306106 -0.22786487052 
0.003114454227 -0.99878679842 -0.049145004554 -0.13075597032 -0.97840330404 0.16009325679 -0.2669217884 -0.8876451589 0.37528499938 
-0.37869114028 -0.73451750911 0.56309595016 -0.44962128591 -0.55074138551 0.7032244489 -0.4792007894 -0.36850864137 0.79659775588 
-0.47523333991 -0.206245749 0.85534552297 -0.44609264133 -0.070484930044 0.89220694347 -0.39795122991 0.037939337781 0.91662174601 
-0.33478970772 0.11980550373 0.93464565097 -0.2590478789 0.17569469761 0.949750267 -0.17220856835 0.20534274501 0.96342024375 
-0.075253659399 0.20745603402 0.97534551862 0.030833010473 0.17973308229 0.98323209091 0.14425876458 0.11928138424 0.98232446789 
0.26109363012 0.023906548311 0.96501740568 0.37364464015 -0.10509366966 0.92159915554 0.46998398432 -0.25907016254 0.84379956469 
0.53717029971 -0.42048703479 0.73118993612 0.5680926591 -0.56820614145 0.59532555085 0.56588166788 -0.68731471713 0.45538600941 
0.54105481075 -0.77411260792 0.32864777806 0.50528140097 -0.83311584223 0.22496377323 0.4675474593 -0.87158870386 0.14741948517 
0.43355596019 -0.89607571481 0.09527613928 0.40654308383 -0.91122470119 0.066274164796 0.38819777321 -0.91976485944 0.057750257218 
0.37928746671 -0.92285342905 0.0669519685 0.37999733987 -0.92050326909 0.090971167362 0.39006920383 -0.91204329897 0.12658213549 
0.40886992045 -0.8965858903 0.17017382131 0.43544924357 -0.87344872619 0.2178790467 0.46861244459 -0.84243644627 0.26590075361 
0.5070195754 -0.80390091467 0.31092518321 0.54926393982 -0.75860573435 0.35046606715 0.59390214193 -0.7075091379 0.38302880519 
0.63944770189 -0.65159269695 0.40808527763 0.68437063012 -0.59179728787 0.42592582769 0.72713070947 -0.52907159443 0.43745191656 
0.76626985402 -0.46445769277 0.44397022698 0.80054626098 -0.3991586966 0.44698771679 0.82907526273 -0.33452881153 0.4480230831 
0.85142834245 -0.27197865215 0.44843883691 0.86764847308 -0.21286430344 0.44930492484 0.87819766333 -0.15836937573 0.45131807514 
0.88385571053 -0.10940179406 0.45478602707 0.8855916971 -0.066581065324 0.45966760574 0.88444916079 -0.030257510344 0.46565455549 
0.88144625759 -0.00055176521517 0.4722840147 0.87749334365 0.022555782613 0.47905810559 0.87333136851 0.039112176348 0.4855538677 
0.86948544513 0.049099002881 0.4915123077 0.86623033693 0.052351687443 0.49689466107 0.86356222392 0.048492884146 0.50190509621 
0.86117184253 0.03687523507 0.50697462922 0.85840982989 0.016590066189 0.51269614164 0.85422621268 -0.013492611884 0.51972639628 
0.84708091372 -0.054664592368 0.52864516262 0.83482587821 -0.10821147967 0.53977405341 0.81459609876 -0.17513535917 0.55295641948 
0.78281786218 -0.25565396234 0.5673070123 0.73554841218 -0.34844645346 0.58099363371 0.66939895385 -0.44980117493 0.59125624193 
0.58311855622 -0.5532291633 0.59490355712 0.47926358908 -0.65031748398 0.58940103682 0.36459765716 -0.73312276189 0.5741076244 
0.24835715702 -0.79688737574 0.55071701711 0.13930367003 -0.84118752412 0.5224921404 0.043507999075 -0.86899437388 0.49290550025 
-0.03612290444 -0.88477028284 0.46462531397 -0.099106442087 -0.8929152845 0.43918129269 -0.14636787835 -0.89699321887 0.41710863031 
-0.17947408 -0.89955001429 0.39824468156 -0.20019378701 -0.90221516253 0.38200817811 -0.21030741448 -0.90588545804 0.36761709472 
-0.21156367392 -0.91090396091 0.35425243241 -0.20567795977 -0.91721973325 0.34118109239 -0.19433845975 -0.92453157357 0.32783217129 
-0.17919208253 -0.93240792532 0.31385611092 -0.1618155257 -0.94038447916 0.29915341715 -0.14365523741 -0.94804396983 0.28385877479 
-0.12595901619 -0.95506751141 0.26829158556 -0.10971682753 -0.96125233206 0.25289557504 -0.095619141176 -0.96650759735 0.23815970293 
-0.084046009095 -0.9708333515 0.22454147049 -0.075083573089 -0.97429021978 0.21241710078 -0.068565759593 -0.97697129061 0.20205403716 
-0.064143741002 -0.97898080423 0.19360311321 -0.061372624423 -0.98041856399 0.1871171835 -0.059796208216 -0.98136964037 0.18258708181 
-0.059031527558 -0.98189821308 0.17997549253 -0.059031527558 -0.98189821308 0.17997549253 
FrenetNormal 3 128 double
0.39043170032 -0.91546030501 0.09744494518 0.39043170032 -0.91546030501 0.09744494518 0.3850613692 -0.92248735941 0.027291274611 
0.37761669074 -0.9234507896 -0.068148910877 0.37078611273 -0.91252617382 -0.1726662697 0.3684214262 -0.88856279092 -0.27335292079 
0.37386612379 -0.85329353511 -0.36347525971 0.38866206822 -0.80861369328 -0.44168505948 0.41230253434 -0.75536877047 -0.50933745275 
0.44250330955 -0.69351917277 -0.56852614542 0.4757431882 -0.62281459645 -0.62110417591 0.50790428007 -0.5432949412 -0.66847875744 
0.53511444324 -0.45555422972 -0.71142313458 0.55462027882 -0.36082239801 -0.74980233623 0.56579302691 -0.26126181562 -0.78206170754 
0.57079435089 -0.16019758936 -0.80531393963 0.57448582195 -0.061916402858 -0.81616934482 0.58292211014 0.029414464306 -0.81199544506 
0.60088650471 0.11104505766 -0.79158347862 0.63025034056 0.18186604376 -0.75479086531 0.6701179744 0.24146833912 -0.70187957769 
0.71787068071 0.28912242964 -0.63330080251 0.77054171044 0.32295625058 -0.5495131779 0.82569057277 0.33946499796 -0.45055365185 
0.88140620247 0.33293027807 -0.33508287959 0.93501211578 0.29384862894 -0.19850774951 0.97800616755 0.20626938707 -0.030933415415 
0.98240512261 0.046984332288 0.18075576778 0.88217682401 -0.19396618868 0.429116731 0.62262514561 -0.44972572459 0.64037856046 
0.29242467883 -0.60524542858 0.74038218401 0.016477850273 -0.64558096651 0.76351404449 -0.18182621963 -0.61394711378 0.76811989125 
-0.32360175326 -0.53609502785 0.77966917754 -0.42693948287 -0.41740195208 0.80218345057 -0.49895787605 -0.25407685653 0.82854450026 
-0.53642824004 -0.043144517278 0.84284238973 -0.52914743468 0.20542852199 0.82328738283 -0.46899821775 0.45983450245 0.75405099437 
-0.36070180626 0.67742969776 0.64107972324 -0.22006593887 0.83132531215 0.51036184019 -0.060885993605 0.91936178462 0.38867313358 
0.1118625869 0.95008688204 0.29124161487 0.29895203315 0.92789980908 0.22277707732 0.49955945545 0.84698251878 0.18182673994 
0.70168338028 0.69372952946 0.16241851434 0.87407246508 0.46103326299 0.15311974464 0.97541326008 0.17209038899 0.137673055 
0.98760458283 -0.11960939907 0.10164044287 0.92913481696 -0.36777371668 0.038091799982 0.82945740583 -0.55592389682 -0.05430499844 
0.70631663103 -0.68615260139 -0.17410176429 0.56499229123 -0.762193894 -0.31598129502 0.40648667901 -0.78503135613 -0.46743379176 
0.23607757717 -0.75728179215 -0.6089266498 0.065638784019 -0.68980277641 -0.72101572777 -0.091933773654 -0.6014829373 -0.79357826167 
-0.22958294182 -0.51190285522 -0.82779655692 -0.34852909969 -0.43549875036 -0.82998090647 -0.45701557398 -0.38109142322 -0.80368283065 
-0.57166270091 -0.35523144969 -0.73960284852 -0.72862417065 -0.36712929098 -0.5782066254 -0.92084315267 -0.38462796582 0.064103167584 
-0.23186830795 -0.02474768318 0.97243233181 0.17277165108 0.16725054274 0.97065813371 0.32641566384 0.26550956471 0.90717004219 
0.41357481182 0.34826922278 0.841227926 0.47523329661 0.42860049839 0.7684106497 0.5232644141 0.50721119058 0.68478548545 
0.56052291653 0.58155466262 0.58958310223 0.58602320585 0.6486551273 0.48561644128 0.59754473544 0.70669354847 0.37884629825 
0.59342015849 0.75576934283 0.27688484237 0.57352676923 0.79762419793 0.18671551585 0.5391821325 0.83455758189 0.11312060158 
0.4924477371 0.86837336305 0.058505799433 0.43570844249 0.89978973698 0.023164247539 0.3711627479 0.9285452179 0.0064801917034 
0.30092711913 0.95362132345 0.0070171530868 0.22694177288 0.9736360381 0.023028179229 0.15121383499 0.98712466958 0.052146551269 
0.075665747426 0.99289892576 0.091795522196 0.0022827027941 0.99028400126 0.13904095119 -0.067313618542 0.97918566491 0.19147926883 
-0.1326644623 0.95944724983 0.24871894828 -0.19614280947 0.92841157963 0.31556288931 -0.26780355326 0.87117456265 0.41150472446 
-0.37788782062 0.70693559987 0.59786524624 -0.49591485493 -0.031207493938 0.86781020332 -0.26021106877 -0.80973531035 0.52594574517 
-0.14332357217 -0.93928380299 0.31177602714 -0.1242149968 -0.96300827782 0.23913529942 -0.14510403829 -0.96612624711 0.21341249431 
-0.18832334045 -0.96102747282 0.20238704487 -0.24740013046 -0.94964833515 0.19225299737 -0.31953995894 -0.93111718511 0.17582662553 
-0.40293403138 -0.90300796563 0.14906636226 -0.4950084494 -0.86192838306 0.10975471512 -0.59154286861 -0.80418959134 0.057932165316 
-0.68586224988 -0.72771769727 -0.0044639972946 -0.77019520879 -0.63363431372 -0.072848451094 -0.83776364317 -0.52739703246 -0.14143708261 
-0.88529850086 -0.4174754718 -0.20484334216 -0.91348280784 -0.31285566088 -0.26013553244 -0.92562404412 -0.2207144532 -0.30741707677 
-0.92526947286 -0.14605476195 -0.35006343583 -0.91407012801 -0.092734028573 -0.39481160195 -0.88895169436 -0.065714583728 -0.45326204184 
-0.83463293498 -0.075054010417 -0.54566909328 -0.69801254732 -0.14227138503 -0.70181004324 -0.34492558809 -0.28309128063 -0.89492215612 
0.18852537607 -0.3936838925 -0.89970616057 0.52084272402 -0.3977543454 -0.75532399508 0.65764962147 -0.37076875539 -0.65576482478 
0.71142957239 -0.34315847013 -0.61327826303 0.72887618429 -0.31825683114 -0.60617827197 0.72688923015 -0.29572770588 -0.6198202732 
0.71164973558 -0.27541043985 -0.64630004136 0.6859402107 -0.25735868191 -0.68062657617 0.65016530238 -0.24181030993 -0.72028664682 
0.60432025663 -0.22882905584 -0.76317382727 0.54823948059 -0.21826753789 -0.80733682799 0.48357962853 -0.20969378736 -0.84981130754 
0.4133077734 -0.20264301906 -0.88775700013 0.34443744351 -0.19675778306 -0.91795927051 0.28709566968 -0.19209365681 -0.93844344713 
0.25124843232 -0.18910013844 -0.9492709639 0.25124843232 -0.18910013844 -0.9492709639 
FrenetBinormal 3 128 double
0.18592247818 0.18206996147 0.96554821798 0.18592247818 0.18206996147 0.96554821798 0.21300761602 0.1176082007 0.96994642463 
0.24889689435 0.030338104916 0.96805471714 0.28720335515 -0.064140134677 0.95571976851 0.32350179617 -0.15312352265 0.93375573609 
0.35598675407 -0.22985921922 0.90578042056 0.38481375348 -0.29310480466 0.87521880042 0.41106837316 -0.34468032321 0.8439302503 
0.4361903317 -0.38747108819 0.8121601753 0.46171893701 -0.4241938776 0.77902193641 0.48919375886 -0.4568287007 0.74296500894 
0.5198650242 -0.48621881469 0.7023756978 0.55422267906 -0.51194738157 0.65631326402 0.59128082434 -0.53250351587 0.60566244092 
0.62829355014 -0.54621597781 0.55398133583 0.6612298673 -0.55260501821 0.50734875228 0.68603052014 -0.55331131252 0.47244969772 
0.69978372905 -0.55168770358 0.45380988341 0.70090941546 -0.55142054999 0.45239514627 0.68852388183 -0.55544763506 0.46627544312 
0.66182295323 -0.56565276436 0.49196273105 0.61932760973 -0.58314270948 0.5257165512 0.55802282427 -0.6086315398 0.56407284667 
0.4721398228 -0.64256017923 0.60349018534 0.35080410637 -0.68460551402 0.63894582645 0.17500654754 -0.73083893384 0.65973264366 