# vtk DataFile Version 4.2
vtk output
ASCII
DATASET POLYDATA
POINTS 128 float
0 0 0 -0.296513 -0.0119038 0.159298 -0.889656 -0.0314633 0.446835 
-1.4117 -0.0396256 0.628108 -1.86786 -0.0424465 0.716242 -2.35374 -0.0521414 0.784262 
-2.86304 -0.0744101 0.837075 -3.36657 -0.113646 0.8645 -3.86253 -0.176749 0.875782 
-4.35547 -0.2711 0.884897 -4.84108 -0.402772 0.900819 -5.31248 -0.57661 0.930391 
-5.76393 -0.7931 0.977442 -6.19059 -1.05071 1.04365 -6.59083 -1.34469 1.12421 
-6.96463 -1.66932 1.21151 -7.31528 -2.01984 1.29451 -7.64709 -2.39184 1.3607 
-7.96356 -2.78086 1.39611 -8.26746 -3.18195 1.38682 -8.55876 -3.58723 1.3229 
-8.83623 -3.98779 1.19726 -9.09777 -4.37584 1.01133 -9.34102 -4.74462 0.770413 
-9.56425 -5.09102 0.481629 -9.76586 -5.4138 0.152671 -9.94289 -5.71336 -0.210496 
-10.0915 -5.99091 -0.602805 -10.2051 -6.24798 -1.0199 -10.2761 -6.48634 -1.45745 
-10.2958 -6.7086 -1.90845 -10.2563 -6.91805 -2.36428 -10.1565 -7.12041 -2.81432 
-9.99974 -7.32282 -3.24726 -9.79391 -7.53314 -3.65543 -9.54983 -7.75964 -4.03323 
-9.27948 -8.01043 -4.37533 -8.9953 -8.29354 -4.67662 -8.70736 -8.61698 -4.93309 
-8.4264 -8.98891 -5.13872 -8.1877 -9.41869 -5.25578 -8.04149 -9.91021 -5.22969 
-8.02651 -10.3917 -5.04904 -8.16787 -10.7498 -4.73431 -8.42698 -10.9586 -4.33982 
-8.73034 -11.0467 -3.93568 -9.04378 -11.0423 -3.54425 -9.35743 -10.9729 -3.15901 
-9.66265 -10.8555 -2.77632 -9.95151 -10.7008 -2.39439 -10.2178 -10.5185 -2.00917 
-10.4565 -10.3174 -1.61512 -10.6614 -10.1067 -1.20712 -10.8252 -9.89633 -0.780439 
-10.9395 -9.69963 -0.331575 -10.9946 -9.53289 0.141542 -10.9817 -9.41862 0.632879 
-10.8935 -9.38355 1.12951 -10.7357 -9.44598 1.60702 -10.525 -9.61632 2.03285 
-10.2829 -9.8859 2.38678 -10.0337 -10.2311 2.65924 -9.79257 -10.6301 2.85143 
-9.56608 -11.0635 2.97308 -9.35679 -11.5171 3.0341 -9.16375 -11.9815 3.04427 
-8.98433 -12.4502 3.01291 -8.81449 -12.9189 2.94894 -8.64911 -13.3853 2.86125 
-8.48204 -13.8478 2.75878 -8.30548 -14.3058 2.65173 -8.10989 -14.7584 2.55173 
-7.88311 -15.201 2.476 -7.61081 -15.6242 2.44723 -7.28922 -16.0124 2.48211 
-6.92616 -16.3432 2.5902 -6.53406 -16.6074 2.76648 -6.12957 -16.8099 2.9904 
-5.72232 -16.9595 3.24467 -5.31361 -17.0677 3.51675 -4.90337 -17.1432 3.79718 
-4.49048 -17.1904 4.0799 -4.07384 -17.2127 4.36004 -3.6525 -17.2114 4.63397 
-3.22588 -17.1876 4.89855 -2.79389 -17.1419 5.15127 -2.35685 -17.0755 5.39034 
-1.91558 -16.9897 5.61497 -1.47107 -16.8871 5.82566 -1.02444 -16.7714 6.02471 
-0.57658 -16.6476 6.21571 -0.128024 -16.522 6.40406 0.320631 -16.4023 6.59591 
0.768597 -16.2977 6.79843 1.21371 -16.2191 7.01871 1.65148 -16.1795 7.26353 
2.0745 -16.1919 7.53699 2.47063 -16.2677 7.83839 2.82777 -16.414 8.16313 
3.13486 -16.629 8.50023 3.38405 -16.9079 8.83822 3.57344 -17.2408 9.16607 
3.70322 -17.6173 9.47439 3.77645 -18.0277 9.75701 3.79713 -18.4626 10.0096 
3.77054 -18.9137 10.231 3.70235 -19.3742 10.4214 3.59882 -19.8387 10.5841 
3.46618 -20.3032 10.7231 3.31042 -20.7656 10.8436 3.13737 -21.2249 10.951 
2.95245 -21.6813 11.0509 2.76082 -22.1354 11.1481 2.56708 -22.5884 11.2467 
2.37554 -23.0413 11.3498 2.18992 -23.4954 11.4582 2.01349 -23.9518 11.5716 
1.8486 -24.4125 11.6868 1.69719 -24.8788 11.7993 1.56052 -25.3502 11.9034 
1.43945 -25.8278 11.9912 1.3341 -26.319 12.0484 1.24462 -26.8231 12.065 
1.17166 -27.3088 12.049 1.11456 -27.7677 11.9959 1.06759 -28.2965 11.8413 
1.02873 -28.8997 11.5778 1.01195 -29.2017 11.4295 
LINES 1 129
128 0 1 2 3 4 5 6 7 8 9 10 11 12 13 14 15 16 17 18 19 20 21 22 23 24 25 26 27 28 29 30 31 32 33 34 35 36 37 38 39 40 41 42 43 44 45 46 47 48 49 50 51 52 53 54 55 56 57 58 59 60 61 62 63 64 65 66 67 68 69 70 71 72 73 74 75 76 77 78 79 80 81 82 83 84 85 86 87 88 89 90 91 92 93 94 95 96 97 98 99 100 101 102 103 104 105 106 107 108 109 110 111 112 113 114 115 116 117 118 119 120 121 122 123 124 125 126 127 

CELL_DATA 1
FIELD FieldData 2
Length 1 1 double
56.230851242 
Tortuosity 1 1 double
0.79221274533 
POINT_DATA 128
SCALARS MaximumInscribedSphereRadius float
LOOKUP_TABLE default
1.24 1.05306 0.866126 0.866264 0.879242 1.14465 1.42058 1.29538 1.14663 
1.09927 1.0601 1.13269 1.21674 1.23218 1.23911 1.24 1.24 1.24 
1.24 1.23376 1.22628 1.19305 1.15411 1.16014 1.17725 1.2435 1.32318 
1.43479 1.55607 1.5132 1.41558 1.33516 1.26101 1.2518 1.26826 1.34892 
1.45715 1.6265 1.82433 1.98238 2.12048 2.01983 1.79462 1.60733 1.43719 
1.46236 1.57566 1.67273 1.76197 1.69236 1.53983 1.40444 1.27877 1.39412 
1.65698 1.68142 1.54942 1.49672 1.49876 1.59818 1.76652 1.844 1.85515 
1.86 1.86 1.86 1.86 1.86 1.86 1.86 1.86 1.87765 
1.91355 1.98654 2.10064 2.16268 2.16433 2.13161 2.05689 1.97132 1.87154 
1.77371 1.67865 1.60721 1.57199 1.55484 1.5677 1.60458 1.68475 1.77335 
1.87849 1.98481 2.09367 2.17 2.17 2.14553 2.05836 1.99186 1.98263 
1.99456 2.06931 2.10948 2.03891 2.01179 2.13632 2.22954 2.20235 2.13184 
1.87499 1.68372 1.8132 1.94105 2.05972 2.16343 2.16786 2.17252 2.17893 
2.18086 2.13858 2.0914 1.98182 1.87188 1.75548 1.64664 1.72189 1.80408 
1.98704 2.17 
TEXTURE_COORDINATES TCoords 2 float
0 0 0.00787402 0 0.015748 0 0.023622 0 0.0314961 
0 0.0393701 0 0.0472441 0 0.0551181 0 0.0629921 0 
0.0708661 0 0.0787402 0 0.0866142 0 0.0944882 0 0.102362 
0 0.110236 0 0.11811 0 0.125984 0 0.133858 0 
0.141732 0 0.149606 0 0.15748 0 0.165354 0 0.173228 
0 0.181102 0 0.188976 0 0.19685 0 0.204724 0 
0.212598 0 0.220472 0 0.228346 0 0.23622 0 0.244094 
0 0.251969 0 0.259843 0 0.267717 0 0.275591 0 
0.283465 0 0.291339 0 0.299213 0 0.307087 0 0.314961 
0 0.322835 0 0.330709 0 0.338583 0 0.346457 0 
0.354331 0 0.362205 0 0.370079 0 0.377953 0 0.385827 
0 0.393701 0 0.401575 0 0.409449 0 0.417323 0 
0.425197 0 0.433071 0 0.440945 0 0.448819 0 0.456693 
0 0.464567 0 0.472441 0 0.480315 0 0.488189 0 
0.496063 0 0.503937 0 0.511811 0 0.519685 0 0.527559 
0 0.535433 0 0.543307 0 0.551181 0 0.559055 0 
0.566929 0 0.574803 0 0.582677 0 0.590551 0 0.598425 
0 0.606299 0 0.614173 0 0.622047 0 0.629921 0 
0.637795 0 0.645669 0 0.653543 0 0.661417 0 0.669291 
0 0.677165 0 0.685039 0 0.692913 0 0.700787 0 
0.708661 0 0.716535 0 0.724409 0 0.732283 0 0.740157 
0 0.748031 0 0.755906 0 0.76378 0 0.771654 0 
0.779528 0 0.787402 0 0.795276 0 0.80315 0 0.811024 
0 0.818898 0 0.826772 0 0.834646 0 0.84252 0 
0.850394 0 0.858268 0 0.866142 0 0.874016 0 0.88189 
0 0.889764 0 0.897638 0 0.905512 0 0.913386 0 
0.92126 0 0.929134 0 0.937008 0 0.944882 0 0.952756 
0 0.96063 0 0.968504 0 0.976378 0 0.984252 0 
0.992126 0 1 0 
FIELD FieldData 7
Curvature 1 128 double
0 0.020196206086 0.037028874092 0.051877481781 0.064691420129 0.076003586281 0.086635449264 0.097225502679 0.10782041108 
0.11781676062 0.12624645888 0.13225468728 0.13554780642 0.13669004904 0.13710423199 0.13872325533 0.14330564573 0.15167031239 
0.1633602662 0.17688337854 0.19029574943 0.20175434853 0.20986515808 0.21395567434 0.21402652951 0.21064151731 0.20455680884 
0.19664223382 0.18756848167 0.17808352099 0.16907051432 0.16200728956 0.15932457744 0.16445267109 0.1817554172 0.2162391739 
0.27451148097 0.36681021064 0.50860604247 0.71614493304 0.98023811678 1.2116093464 1.2530979768 1.0666221148 0.79251929694 
0.55515147367 0.3855319608 0.27143991332 0.19648793656 0.15113773189 0.13286940841 0.14066897558 0.16938248426 0.21307281501 
0.26777433633 0.32991318588 0.39338311924 0.44811062767 0.48167802395 0.48482839601 0.45687943416 0.40604163787 0.34397522956 
0.28025430647 0.22031852119 0.16635150076 0.11909740271 0.080470586289 0.058937341285 0.067853849173 0.097913616067 0.13437943787 
0.17051765635 0.20185293357 0.22430934859 0.23506284151 0.23347343477 0.22141828586 0.20250331067 0.18044517986 0.15815428328 
0.13738113242 0.11871342361 0.10185667599 0.086022066214 0.070201278976 0.053439127097 0.034971320159 0.014333887421 0.0096907158298 
0.035566990115 0.064517515068 0.096369192179 0.13088910063 0.16750860985 0.20505823476 0.24151853776 0.27390952873 0.29895899927 
0.31370934434 0.31654039331 0.30781028154 0.28957149552 0.26468426436 0.23606696257 0.20609996617 0.17641507115 0.14810196801 
0.12177055771 0.097802763355 0.076555462288 0.058514346552 0.044665121561 0.036803645947 0.036599151751 0.042905592343 0.052819596524 
0.064192540619 0.075558601557 0.085603489675 0.092765441057 0.095524845769 0.09258691804 0.083271209656 0.067782878054 0.047130873056 
0.022931291354 0 
Torsion 1 128 double
0 0 0.12789550316 0.17448022906 0.21654977568 0.24453579166 0.24905677167 0.22612539502 0.17974473924 
0.11805094659 0.047943152764 -0.027196484401 -0.10610577655 -0.1863804295 -0.26051329045 -0.3140554737 -0.3318666004 -0.31021352574 
-0.26041644967 -0.19861982692 -0.13569792044 -0.076046130563 -0.01979173905 0.034201285545 0.087096197027 0.13929964305 0.19104761613 
0.24290770867 0.29651779615 0.35511329976 0.42259646874 0.49984722485 0.57738549094 0.63017623366 0.63047606775 0.57616676897 
0.4912771762 0.3999616342 0.31207060046 0.22835998313 0.15005009583 0.081465658413 0.021531749877 -0.039793312176 -0.11129257682 
-0.19589690961 -0.29907520776 -0.4379676551 -0.6372509956 -0.88448970136 -1.0225111184 -0.88838311306 -0.64713309972 -0.46253277314 
-0.34664338429 -0.2740599471 -0.22558784475 -0.18977323604 -0.16045032186 -0.13358113222 -0.10630779934 -0.076175192087 -0.040499299535 
0.0046422611653 0.068062065499 0.17166468071 0.37695827811 0.85044945822 1.5710966009 1.1490028069 0.52208995272 0.25108396284 
0.12976651372 0.065113410656 0.023772827895 -0.0077537892566 -0.035459951744 -0.062506606883 -0.089901433246 -0.11682974974 -0.14113794513 
-0.15943628046 -0.16802131649 -0.16462763936 -0.14941671863 -0.12366898041 -0.085258795421 -0.009243021391 0.50427282523 1.4025879628 
0.086209630037 0.018733615566 0.0085922981424 0.009234593637 0.012957484331 0.017352178461 0.021493953517 0.025127106925 0.028058888202 
0.029903714603 0.03052621145 0.029953182259 0.028166711627 0.025420143876 0.022363630938 0.019864501517 0.019459871276 0.024036098305 
0.037715578447 0.068659355571 0.13316316863 0.26014179584 0.47800039112 0.69569394231 0.63155372078 0.36130290596 0.14924681683 
0.032608072938 -0.023932417653 -0.047274983698 -0.053314714659 -0.05075631572 -0.04397461064 -0.0355429738 -0.02681474151 -0.018466625745 
0 0 
Abscissas 1 128 double
0 0.50240438433 1.0048087687 1.5072150025 2.0096213634 2.5120241481 3.0144267839 3.5168328925 4.019239205 
4.5216410529 5.02404254 5.5264461093 6.0288498921 6.5312543758 7.0336589464 7.5360638522 8.0384688072 8.5408731285 
9.0432773408 9.5456834368 10.048089905 10.550490571 11.05288995 11.555296224 12.057704198 12.560109095 13.062513149 
13.564917658 14.067322304 14.569725634 15.072128525 15.574537243 16.076948083 16.579348898 17.081745752 17.58414832 
18.086553344 18.58895856 19.091363865 19.593768081 20.096171751 20.598567014 21.100957892 21.603365831 22.105781483 
22.608192232 23.110600768 23.613004644 24.115406274 24.617811623 25.120218914 25.622633452 26.125052093 26.627453993 
27.129845648 27.632244815 28.134648909 28.637053543 29.13945855 29.641858887 30.144255921 30.646657164 31.14906148 
31.651464046 32.153865263 32.656261227 33.158652864 33.661051678 34.163456859 34.665871422 35.16829497 35.670719226 
36.173144216 36.675545115 37.177919308 37.680314983 38.182735585 38.685145606 39.187542697 39.689944186 40.192351447 
40.694757924 41.197163289 41.699566997 42.201968162 42.704370589 43.206775111 43.709180272 44.211586584 44.713990204 
45.216388545 45.718789032 46.221194118 46.723598852 47.22600276 47.728406606 48.230810292 48.733213363 49.235614727 
49.738016687 50.240420417 50.742823987 51.245227048 51.747635725 52.250064002 52.752488495 53.254898431 53.757301935 
54.259677768 54.762060198 55.264474885 55.766885462 56.269272847 56.771667297 57.274108632 57.776540515 58.278897205 
58.781260127 59.283684489 59.786108581 60.288529224 60.790949172 61.293356897 61.795763912 62.29815363 62.800542597 
63.302920649 63.805298701 
ParallelTransportNormals 3 128 double
0.44663726654 0 0.89471512345 0.35528161085 -0.0020407805934 0.92930674788 0.26392595516 -0.0040815611869 0.96389837231 
0.19219842036 -0.0056700758237 0.9787881613 0.12181813648 -0.0072275474622 0.9923256397 0.08049296162 -0.0099666468501 0.99587811592 
0.040378436707 -0.012754981558 0.99901454337 0.034463175483 -0.013540753624 0.99930624485 0.030555973981 -0.0142089423 0.99943091408 
0.055469406467 -0.0058653116198 0.99802434741 0.082711474982 0.0032064518018 0.99649406066 0.11547773604 0.020721808645 0.99234905813 
0.1488107904 0.039103495205 0.98793578048 0.16233244508 0.049078251954 0.98540922946 0.1733954045 0.058009666032 0.98311683078 
0.15496262393 0.038042707519 0.98661850321 0.1321959945 0.013829672145 0.99097150631 0.082904932259 -0.048303744734 0.99157754495 
0.029055471292 -0.11695402928 0.99153964304 -0.036376636538 -0.20835135776 0.97005964722 -0.10409601518 -0.30424063444 0.94434539683 
-0.16400284854 -0.39320791702 0.89724310362 -0.22217582889 -0.48063898831 0.84539412147 -0.26653749585 -0.55037952601 0.78514650796 
-0.30749426054 -0.61575881752 0.72282838036 -0.33707132693 -0.66838123704 0.65758196395 -0.36353534812 -0.71751386993 0.59153448101 
-0.37921945388 -0.75913403025 0.52315973547 -0.39163851353 -0.79847879523 0.45408010316 -0.39207150592 -0.82950001778 0.39260590674 
-0.38850672742 -0.85774504902 0.33366838807 -0.38220614436 -0.87314555582 0.30150363326 -0.37490920693 -0.88386820725 0.27908926802 
-0.38098486663 -0.87883724035 0.28622891507 -0.39234657869 -0.86757902751 0.30505096416 -0.42578428642 -0.83352279974 0.34406444725 
-0.46870434155 -0.78967409417 0.39175079812 -0.54005655692 -0.69527868445 0.44964860534 -0.62465819656 -0.57732844374 0.51230496471 
-0.71859702644 -0.3262023944 0.5273071636 -0.81721565916 -0.0083285855805 0.51842508144 -0.79283060568 0.31234366802 0.35902152118 
-0.70426506126 0.63447608565 0.12107931984 -0.59059254256 0.77472584664 -0.074822525867 -0.46557004822 0.83275288735 -0.25171941275 
-0.38180496862 0.84389325163 -0.36325608206 -0.31665561587 0.83387791413 -0.44530161711 -0.27807079911 0.8219598736 -0.49520983686 
-0.25228570941 0.80912504387 -0.52963316864 -0.24384338154 0.80504754738 -0.54077479701 -0.24445497148 0.80554188183 -0.53976203896 
-0.25567896871 0.8193430252 -0.51075445002 -0.2729115443 0.84067827483 -0.46589662741 -0.28798099397 0.8726599045 -0.37776563708 
-0.30172654366 0.9111574481 -0.26315012938 -0.28746965384 0.93423118743 -0.096700153628 -0.25484140792 0.94718594407 0.10375648325 
-0.18412670146 0.90596561031 0.30933514474 -0.087116693096 0.82734221159 0.5184501071 0.011907307697 0.71452721873 0.67368733773 
0.11235648512 0.5775169706 0.79079866329 0.19337081168 0.44742397932 0.86282894756 0.26019708615 0.322380803 0.90194865452 
0.3111040447 0.21660749091 0.92102245866 0.3497432747 0.12568390383 0.92464850767 0.37809509987 0.055237460368 0.92267340188 
0.39797078258 0.0016628314441 0.9160833143 0.40967878986 -0.029875354376 0.91166693308 0.41414289851 -0.041869453088 0.90917840866 
0.40587574444 -0.024655994014 0.91252370805 0.38541443041 0.020532823055 0.92145671564 0.33697996791 0.10041146927 0.92833459353 
0.25960598363 0.2161783555 0.93308634427 0.15743133822 0.33276097367 0.91709195638 0.02776307132 0.4502478994 0.87809872667 
-0.088059307527 0.53709886535 0.83226730634 -0.18781431113 0.58839852103 0.77850054995 -0.26619144849 0.62299641338 0.73357258608 
-0.31843930113 0.63718042886 0.69944791396 -0.35927272908 0.64649682232 0.67252587238 -0.38512837212 0.64942601735 0.65505498174 
-0.40566829517 0.65110403904 0.64135639797 -0.41867628745 0.65100925273 0.6330028576 -0.42894229006 0.65068850564 0.62656304789 
-0.43500429314 0.65002131707 0.62305735675 -0.43958129176 0.64944908991 0.62046805665 -0.4416913665 0.64903461487 0.61940108658 
-0.44302455142 0.64877416271 0.61872556859 -0.44295718664 0.64879137758 0.61875574665 -0.442033655 0.64903818757 0.61915332845 
-0.43943026654 0.64973547857 0.62027178104 -0.43529533515 0.65070344362 0.62214573814 -0.42787733724 0.65225163461 0.62563921992 
-0.41805902647 0.6535659504 0.63080333499 -0.40260727582 0.65433137033 0.63988836071 -0.3850420719 0.65327200266 0.65156851494 
-0.36205975124 0.64753541424 0.66990039613 -0.33898164892 0.63844917906 0.69045907113 -0.31563834724 0.62008847344 0.71718327187 
-0.29412258985 0.59847131296 0.74457474614 -0.27803297059 0.5671854544 0.77394741364 -0.2644183976 0.5341861283 0.80238045749 
-0.25872727411 0.49570142054 0.8278054523 -0.25494515912 0.45769610689 0.85139226563 -0.25782529509 0.42136383129 0.86856400731 
-0.26136702194 0.38721420792 0.88400334181 -0.26745355899 0.36146015923 0.89277896983 -0.27318348746 0.33826111525 0.90049389465 
-0.27737927428 0.32605378442 0.90364563985 -0.28090240113 0.31582099341 0.90628406908 -0.28113645608 0.31524301119 0.90641256288 
-0.28100936684 0.31552677899 0.90634841098 -0.27884407388 0.32067403936 0.9051970169 -0.27688025411 0.32535444857 0.90414658962 
-0.27625341466 0.32693682377 0.90376618014 -0.27622832377 0.3267885933 0.90380232633 -0.28099078021 0.31287156127 0.90715261412 
-0.28636956108 0.29636521479 0.91093997902 -0.29782470009 0.25433075138 0.91903649824 -0.30957134102 0.20973819992 0.92698038771 
-0.32502675037 0.1325991851 0.93298237435 -0.34039673484 0.054141229569 0.93812415707 -0.35426731447 -0.047467196064 0.92816736476 
-0.36795705301 -0.1493556987 0.91722324449 -0.37724114829 -0.25806742627 0.88222587923 -0.3859271811 -0.35977616631 0.84948297278 
-0.3859271811 -0.35977616631 0.84948297278 -0.3859271811 -0.35977616631 0.84948297278 
FrenetTangent 3 128 double
-0.96495633891 -0.059852260612 0.25549358289 -0.96495633891 -0.059852260612 0.25549358289 -0.96713927004 -0.068728694756 0.24478153293 
-0.96987667355 -0.083423176577 0.22886636213 -0.97223529044 -0.10425899325 0.20949606762 -0.97320403457 -0.13150867581 0.18862495932 
-0.97181625421 -0.16528054367 0.16809375342 -0.96721583172 -0.20541314499 0.14932841233 -0.95868974281 -0.25138718987 0.13311069752 
-0.94570748175 -0.3022711522 0.11945505226 -0.92799240762 -0.35672443989 0.10760002505 -0.90560962807 -0.41307832801 0.096111895617 
-0.87901825777 -0.46949382443 0.083080992612 -0.84903073656 -0.52415719263 0.066378052075 -0.8166578485 -0.57544831476 0.043922608392 
-0.78287701157 -0.62202076015 0.013919723414 -0.74839492575 -0.66278386849 -0.024951528485 -0.71347945311 -0.6968214824 -0.073395447093 
-0.67789743434 -0.72332060604 -0.13138633642 -0.64096476774 -0.74156991286 -0.1980864227 -0.6016884914 -0.75105440289 -0.27182391953 
-0.55895852068 -0.75162606904 -0.3501765619 -0.51175619436 -0.74367243747 -0.43018240699 -0.45931591229 -0.72821678615 -0.50865430803 
-0.40122514912 -0.70688742966 -0.58251913402 -0.3374667768 -0.68176926166 -0.64908154219 -0.26844732272 -0.6551924263 -0.70615785731 
-0.19501483718 -0.62953342251 -0.75210164421 -0.11847903896 -0.60707198475 -0.78576480111 -0.040610192653 -0.58990117337 -0.80645360555 
0.036433341777 -0.57987720679 -0.81388883556 0.11022920853 -0.57858868858 -0.80813652995 0.17828127404 -0.58733207686 -0.78946616065 
0.23815526113 -0.60710389663 -0.75809427534 0.28751009709 -0.63859475751 -0.71381697917 0.3239448441 -0.68214932984 -0.65553949521 
0.34462050798 -0.73758043514 -0.58069941208 0.34563831807 -0.80355976454 -0.48458833858 0.32119742909 -0.87600641678 -0.35978461516 
0.26308623937 -0.94450231752 -0.19672570462 0.16265724914 -0.98661792134 0.011300291528 0.019762222333 -0.96693431519 0.25425869635 
-0.14352120793 -0.85866904002 0.49202555075 -0.28834845335 -0.67911483601 0.67502459878 -0.38953147126 -0.47913966542 0.78656875982 
-0.4467998324 -0.29800347082 0.84354243589 -0.47064842545 -0.14959555569 0.86954656537 -0.47095064813 -0.033855333495 0.8815096729 
-0.4542285931 0.053125229442 0.88929977803 -0.42424704878 0.11500817951 0.89821353822 -0.38299939109 0.15413312335 0.91079879596 
-0.33140732518 0.1714701525 0.92777538856 -0.26979649381 0.16683571089 0.94835420466 -0.19829431274 0.13919822786 0.97020782253 
-0.11729450804 0.087173210759 0.98926378166 -0.028054927234 0.0098690430534 0.99955766369 0.066578439849 -0.091796861636 0.99354951942 
0.16158948673 -0.21351188954 0.96348404803 0.25005987062 -0.34660696665 0.9040650816 0.3248084799 -0.47909483062 0.81545545228 
0.38090983155 -0.59897692581 0.70436804482 0.41743053742 -0.69795584841 0.58190152096 0.43721352043 -0.77306204005 0.45958613968 
0.44524427489 -0.82569213632 0.34639577322 0.44694133473 -0.85953075389 0.24789176354 0.44712819061 -0.87877601152 0.16682057049 
0.44965771556 -0.88711003451 0.10413321044 0.45739665242 -0.88724745801 0.059835195346 0.47230802386 -0.88079575617 0.033525609694 
0.49549576803 -0.86826059471 0.024647180998 0.52717983476 -0.84913191483 0.032502508371 0.5665959938 -0.82208561429 0.056073367901 
0.61187688181 -0.78538385124 0.093695718753 0.66009881163 -0.73749721637 0.14271445175 0.70763214665 -0.67788218977 0.19933008257 
0.75087324487 -0.60759930947 0.25886762885 0.78712727747 -0.52939249869 0.31650313014 0.81519689868 -0.44711322764 0.36816270594 
0.83541258251 -0.36473458586 0.41116237529 0.84914299865 -0.28552515684 0.44433270492 0.85813990003 -0.21170770063 0.46773471271 
0.8640349857 -0.14451595591 0.48224338458 0.86807660663 -0.0844895895 0.48918760644 0.87107019226 -0.031824432859 0.49012643841 
0.87344455338 0.013360599815 0.48674028653 0.87536703691 0.050864289037 0.48077580513 0.8768512807 0.080330081978 0.47400306904 
0.87782677669 0.10123600062 0.46815747597 0.87815899196 0.11290643257 0.46485365689 0.87760988752 0.11454736043 0.465488762 
0.87575227912 0.10529234871 0.47113847955 0.87186104891 0.084247198986 0.48245281723 0.86480650399 0.050545370637 0.49955467785 
0.85297937692 0.0034793530307 0.52193301932 0.8342926036 -0.057273884875 0.54833890405 0.80631890372 -0.13135686851 0.57671067149 
0.76660933062 -0.21736477611 0.60420417767 0.71322815762 -0.31251015263 0.62740975421 0.645403081 -0.41257896406 0.6428323743 
0.56406205715 -0.51232601628 0.64757706007 0.47198567876 -0.60628374647 0.64003870024 0.3733888441 -0.68979541775 0.62029271538 
0.27307125922 -0.75982869171 0.58999359882 0.1755273393 -0.81524317393 0.55187745064 0.084326068726 -0.85655918118 0.50911244658 
0.0018749390776 -0.88544940988 0.46473199496 -0.070497509404 -0.90418389626 0.42128563102 -0.13230981868 -0.91519514094 0.38067304329 
-0.1836605949 -0.92079412539 0.34410313066 -0.22499877181 -0.92300410272 0.3121521729 -0.25696579226 -0.92349487263 0.28482591497 
-0.28028792174 -0.92357363631 0.26163031026 -0.29571618262 -0.92420614276 0.24165046042 -0.3040059673 -0.92604676238 0.22364651961 
-0.30592038492 -0.92946731276 0.20616312133 -0.30222746536 -0.93458356625 0.18764891918 -0.29370420518 -0.941263676 0.16661492158 
-0.28114507601 -0.94912926251 0.14181357224 -0.26536803665 -0.95756820018 0.11244086061 -0.24722935917 -0.9657864858 0.078320545293 
-0.22764588815 -0.97291906766 0.040072900956 -0.2076179187 -0.97820965913 -0.00081401580589 -0.1882236999 -0.98122437535 -0.042078070519 
-0.17057532671 -0.98201578993 -0.080926177789 -0.15573469159 -0.98114776661 -0.11443673319 -0.14461594514 -0.9795358661 -0.13998469712 
-0.13789998997 -0.97815144302 -0.15557425008 -0.13789998997 -0.97815144302 -0.15557425008 
FrenetNormal 3 128 double
-0.16785385932 -0.6076104534 -0.77629544558 -0.16785385932 -0.6076104534 -0.77629544558 -0.14484760998 -0.64230213878 -0.75264010816 
-0.1082720977 -0.69399315728 -0.71179396633 -0.059070381417 -0.75692230059 -0.65082971729 0.0007137805572 -0.82203465343 -0.56943701941 
0.067572627408 -0.87843168395 -0.47306629203 0.13716673084 -0.91741752178 -0.37353765364 0.20584206914 -0.9360707755 -0.28530780891 
0.27160272249 -0.93684158821 -0.22036288192 0.33366828111 -0.92414219715 -0.18608244849 0.39132291296 -0.90122794882 -0.18615735832 
0.44289661254 -0.86856622554 -0.22234051014 0.48523881411 -0.82328771021 -0.29451763869 0.51383468539 -0.75964496493 -0.39863949046 
0.52445182368 -0.67178305377 -0.52312313398 0.51676744517 -0.55910987506 -0.64834215907 0.49719311646 -0.42968502922 -0.75377037658 
0.47676557606 -0.29651380697 -0.82751081429 0.46541697081 -0.17026854405 -0.8685595352 0.46873794333 -0.056471540517 -0.88153032029 
0.48831768287 0.042930686784 -0.87160931427 0.52331927245 0.12727441496 -0.84257828264 0.572046534 0.19558005185 -0.79656211701 
0.63214535984 0.24653917104 -0.73458197716 0.70093316403 0.27826586964 -0.65670450383 0.77459641281 0.28897127708 -0.56257977059 
0.84837867603 0.27651751345 -0.45143292614 0.91588554377 0.23886366512 -0.32264193807 0.96901335654 0.17356266484 -0.17575299777 
0.99687747929 0.078182817735 -0.011078731714 0.98448636542 -0.048118797551 0.16873404405 0.9134102083 -0.19958167985 0.35475194776 
0.77047576984 -0.35712599707 0.52804176947 0.56502212846 -0.48869568504 0.6647755424 0.33223535004 -0.56674865823 0.75393343909 
0.1101711316 -0.58254034219 0.80530060939 -0.082069145805 -0.54032385831 0.83744539132 -0.24229418072 -0.44328751497 0.86301199822 
-0.37336153649 -0.28769458666 0.88194840432 -0.4728190933 -0.067888174889 0.87854043773 -0.52723645778 0.20599551741 0.82437101137 
-0.52000509344 0.48844000294 0.70072895354 -0.45288594392 0.71785718574 0.52874888433 -0.34792720859 0.86729614041 0.35601132334 
-0.22344724808 0.95018011153 0.21732253215 -0.081879275291 0.98867441116 0.12577238563 0.087650617359 0.99252276241 0.084946661936 
0.30376940357 0.94763533681 0.098546526467 0.57170233742 0.80324805398 0.16717954769 0.82498293166 0.50066072904 0.26218695022 
0.94236747244 0.10806497162 0.31664729399 0.92704989304 -0.22129539751 0.30266622352 0.86178641024 -0.44677868642 0.24023527736 
0.78900908519 -0.59674866497 0.1461358763 0.71716714254 -0.69637780067 0.027004599609 0.64324018206 -0.75726955953 -0.11307025423 
0.56242786481 -0.78231480975 -0.26769093248 0.47211786443 -0.77155467822 -0.42638961128 0.37360890621 -0.72708479462 -0.57598965844 
0.27255985931 -0.65520700147 -0.704567178 0.17681352713 -0.56573708149 -0.80540581774 0.094591373984 -0.46865456211 -0.8783025523 
0.033175728779 -0.37137964313 -0.92788821077 0.00050016780401 -0.27686910691 -0.96090751244 0.0088544130653 -0.18214453575 -0.98323189913 
0.085606767648 -0.07324509179 -0.9936330499 0.29620654439 0.088566142743 -0.95100879145 0.68895106575 0.34517647452 -0.63733792484 
0.86860191779 0.49541648668 -0.0096546949044 0.78855253977 0.50310621325 0.35365100057 0.69428608297 0.51294793254 0.50482794444 
0.61340367579 0.54596987892 0.57065998794 0.53788167107 0.59667544202 0.59553482251 0.46244502273 0.65761528495 0.59471567825 
0.38638861511 0.72202092251 0.57392475602 0.31191715807 0.78434618086 0.53619842883 0.24270257882 0.84086286452 0.48378208039 
0.18250353072 0.88972020986 0.41843805926 0.13395637818 0.93019812828 0.3417413216 0.098156627369 0.96187170073 0.2552804494 
0.074553723262 0.98408112572 0.16132600643 0.061127040399 0.99610360832 0.063569540098 0.054845667139 0.99796006583 -0.032675063929 
0.052540467297 0.99120109209 -0.12149030552 0.051567272348 0.97895367459 -0.19746017175 0.04968495557 0.96552098118 -0.25553989922 
0.042551856291 0.95706121187 -0.28674583913 -0.0020126079197 0.97261069589 -0.23243146012 -0.22690415712 -0.75610516264 0.61385624255 
-0.15572095256 -0.86214867214 0.48213136391 -0.16815758727 -0.8737117407 0.45645461987 -0.19919628703 -0.87873819761 0.43375110292 
-0.24349095914 -0.88184511433 0.40380855259 -0.29940110338 -0.88221749578 0.36338859288 -0.36535907253 -0.87738491415 0.31097983944 
-0.43902243268 -0.86409574056 0.24616631523 -0.51686666956 -0.83909443769 0.16961536056 -0.59429092087 -0.79992858904 0.08326195895 
-0.66625354014 -0.74566354804 -0.0095965298888 -0.72824341143 -0.67729723887 -0.10454656349 -0.7770608065 -0.59779533153 -0.19702092428 
-0.81144512896 -0.51135035201 -0.28297989361 -0.83199443242 -0.42251859816 -0.35953205508 -0.84064302407 -0.33547264901 -0.42517926555 
-0.83989141276 -0.25362911146 -0.47984861008 -0.83227251579 -0.17949136888 -0.52450482167 -0.81946960218 -0.11506426319 -0.56145328073 
-0.80177281062 -0.062201768473 -0.59438312573 -0.77727118721 -0.023160538583 -0.62873928698 -0.73902712627 -0.0021382156957 -0.67367227542 
-0.66980148921 -0.0070649103276 -0.74250660071 -0.53038821917 -0.051543670631 -0.84618649657 -0.26980558033 -0.14145470661 -0.95246811747 
0.05968916486 -0.23484349055 -0.97019881393 0.29677181044 -0.27932291048 -0.91318410203 0.41146122951 -0.28181650585 -0.86676358579 
0.45441739329 -0.26182237454 -0.85144223343 0.46296589274 -0.22885267299 -0.85632297425 0.45606711983 -0.18730123624 -0.87001208561 
0.44366575062 -0.1402676821 -0.88514726407 0.43021657063 -0.090562940526 -0.8981715071 0.41800642611 -0.041267425026 -0.9075062685 
0.40789842577 0.0043884731383 -0.91301676631 0.40018414741 0.043249744445 -0.9154136266 0.39479702739 0.072603132869 -0.91589524088 
0.39208152887 0.090331424198 -0.91548473964 0.39208152887 0.090331424198 -0.91548473964 
FrenetBinormal 3 128 double
0.20170360906 -0.791976795 0.57627112567 0.20170360906 -0.791976795 0.57627112567 0.20895167439 -0.76336382482 0.61124043447 
0.21821180299 -0.71513220544 0.66405537252 0.22642709657 -0.64513463183 0.72974795426 0.22994216145 -0.5540437679 0.80010130961 
0.22584753282 -0.44837497534 0.86484262927 0.21372604618 -0.3408086422 0.91551660093 0.19632376219 -0.24612188854 0.94914751034 
0.1785198031 -0.17595450873 0.96807576706 0.16581788078 -0.13678038399 0.9766245732 0.16351629686 -0.13097510907 0.97780772213 
0.1765488406 -0.15864507766 0.97142279478 0.20902177318 -0.21784532044 0.95333798555 0.26276201129 -0.30298310894 0.91605532645 
0.33474448375 -0.40224085148 0.85214343159 0.41576007832 -0.49811011962 0.76094011985 0.49370646637 -0.57429138712 0.65302628411 
0.5595977609 -0.62360794026 0.5458603144 0.61036973204 -0.64890884356 0.45427536028 0.64672691285 -0.65782083352 0.38602597216 
0.67015760292 -0.65819086022 0.34303582724 0.68135345939 -0.65631739962 0.32404464869 0.67955254076 -0.65684758939 0.32674085858 