# vtk DataFile Version 4.2
vtk output
ASCII
DATASET POLYDATA
POINTS 128 float
0 0 0 -0.162127 0.0948914 0.279578 -0.48108 0.291291 0.822882 
-0.751651 0.479589 1.26634 -0.98546 0.657812 1.62195 -1.24477 0.849265 1.98978 
-1.53123 1.04779 2.36644 -1.8322 1.24037 2.72476 -2.14966 1.42154 3.06512 
-2.48897 1.58776 3.3947 -2.85019 1.73385 3.71307 -3.23178 1.85418 4.01763 
-3.63231 1.94375 4.3073 -4.05009 1.99775 4.58148 -4.4814 2.01152 4.8394 
-4.92153 1.98069 5.08055 -5.36403 1.9021 5.306 -5.80164 1.7735 5.51772 
-6.22645 1.59526 5.7193 -6.63069 1.36935 5.91502 -7.00928 1.10159 6.10938 
-7.35906 0.799403 6.30641 -7.68213 0.470539 6.50645 -7.98321 0.122455 6.70771 
-8.26905 -0.240487 6.90474 -8.54721 -0.615652 7.08984 -8.82378 -1.00283 7.25086 
-9.10343 -1.40275 7.37333 -9.38479 -1.81396 7.44179 -9.66307 -2.23338 7.4412 
-9.93097 -2.65323 7.36517 -10.1801 -3.06325 7.21257 -10.4041 -3.45416 6.98717 
-10.5979 -3.81709 6.69549 -10.7527 -4.14238 6.34337 -10.8584 -4.42041 5.93692 
-10.9079 -4.64781 5.48963 -10.8967 -4.82574 5.01917 -10.8286 -4.96412 4.54003 
-10.7123 -5.07828 4.06418 -10.5563 -5.1826 3.59811 -10.3685 -5.29072 3.14472 
-10.1555 -5.41495 2.70696 -9.92293 -5.56667 2.28799 -9.67621 -5.75613 1.89304 
-9.42101 -5.99342 1.52974 -9.16642 -6.29758 1.21931 -8.9256 -6.69187 0.994511 
-8.73388 -7.15688 0.905338 -8.64196 -7.63816 1.01037 -8.66558 -8.06896 1.29342 
-8.79227 -8.37726 1.68111 -8.99909 -8.54155 2.11503 -9.25636 -8.57785 2.55025 
-9.54074 -8.50444 2.96096 -9.83404 -8.34073 3.33607 -10.1227 -8.10776 3.6764 
-10.3969 -7.82747 3.9917 -10.6499 -7.51711 4.29486 -10.8775 -7.19047 4.60152 
-11.0685 -6.8665 4.93475 -11.2062 -6.56926 5.32244 -11.2723 -6.33673 5.76819 
-11.2491 -6.21691 6.25367 -11.1455 -6.21966 6.75079 -10.9938 -6.3209 7.22458 
-10.8172 -6.49876 7.66069 -10.6298 -6.7347 8.06333 -10.4415 -7.01739 8.43421 
-10.2584 -7.34211 8.77192 -10.0859 -7.70577 9.07339 -9.9285 -8.10646 9.33393 
-9.78942 -8.54099 9.54634 -9.67038 -9.00464 9.70112 -9.56882 -9.48927 9.79227 
-9.47756 -9.98321 9.81799 -9.38756 -10.4768 9.78344 -9.28794 -10.9628 9.7014 
-9.16873 -11.437 9.58584 -9.02112 -11.8983 9.45169 -8.83696 -12.3452 9.31387 
-8.60891 -12.7753 9.18729 -8.3322 -13.1837 9.08712 -8.00547 -13.5621 9.02882 
-7.63281 -13.9015 9.02406 -7.22544 -14.1925 9.07924 -6.7958 -14.4288 9.19522 
-6.35725 -14.6089 9.36558 -5.92036 -14.7331 9.58231 -5.49144 -14.8038 9.83591 
-5.0749 -14.823 10.1172 -4.67285 -14.7918 10.4177 -4.28585 -14.712 10.7286 
-3.91242 -14.5864 11.0407 -3.54985 -14.4203 11.3464 -3.19367 -14.2226 11.6406 
-2.83925 -14.0031 11.9206 -2.48185 -13.7726 12.1878 -2.11758 -13.5414 12.4448 
-1.7441 -13.319 12.6964 -1.36055 -13.1147 12.9485 -0.968683 -12.9377 13.2082 
-0.572171 -12.7988 13.4838 -0.178135 -12.7122 13.786 0.199116 -12.6948 14.1224 
0.530432 -12.7686 14.4942 0.788623 -12.945 14.8928 0.955492 -13.21 15.2899 
1.02514 -13.5441 15.6609 1.0171 -13.9227 15.9959 0.952429 -14.3254 16.2905 
0.847241 -14.744 16.5482 0.715448 -15.1733 16.7734 0.567208 -15.611 16.9708 
0.411513 -16.0556 17.1451 0.255793 -16.5068 17.3012 0.107011 -16.9644 17.4444 
-0.0284786 -17.4287 17.5806 -0.144976 -17.8992 17.7153 -0.238423 -18.3722 17.8524 
-0.305509 -18.8458 17.9968 -0.34434 -19.3247 18.1555 -0.355401 -19.8066 18.3313 
-0.346213 -20.2623 18.5092 -0.320878 -20.6871 18.6875 -0.266399 -21.1835 18.9244 
-0.18457 -21.7643 19.2269 -0.139985 -22.0584 19.3847 
LINES 1 129
128 0 1 2 3 4 5 6 7 8 9 10 11 12 13 14 15 16 17 18 19 20 21 22 23 24 25 26 27 28 29 30 31 32 33 34 35 36 37 38 39 40 41 42 43 44 45 46 47 48 49 50 51 52 53 54 55 56 57 58 59 60 61 62 63 64 65 66 67 68 69 70 71 72 73 74 75 76 77 78 79 80 81 82 83 84 85 86 87 88 89 90 91 92 93 94 95 96 97 98 99 100 101 102 103 104 105 106 107 108 109 110 111 112 113 114 115 116 117 118 119 120 121 122 123 124 125 126 127 

CELL_DATA 1
FIELD FieldData 2
Length 1 1 double
54.817965997 
Tortuosity 1 1 double
0.8667184412 
POINT_DATA 128
SCALARS MaximumInscribedSphereRadius float
LOOKUP_TABLE default
1.24 1.11553 0.99106 1.05994 1.1401 1.10548 1.06553 1.00121 0.935305 
0.960378 0.993416 1.09709 1.20863 1.11606 0.995848 1.04646 1.12439 1.11496 
1.08938 1.03022 0.963984 0.961853 0.975007 0.995048 1.01694 1.19594 1.42239 
1.41804 1.33605 1.28715 1.25043 1.24 1.24 1.24 1.24 1.20161 
1.14566 1.08505 1.02217 1.07097 1.17849 1.25694 1.31875 1.2895 1.20367 
1.1317 1.06902 1.10106 1.20006 1.28941 1.37221 1.40805 1.41458 1.37963 
1.3187 1.31494 1.34848 1.33014 1.27551 1.25272 1.25405 1.31477 1.42394 
1.43376 1.36133 1.41831 1.58491 1.67029 1.68246 1.57996 1.3664 1.24627 
1.22333 1.16656 1.07214 1.04362 1.09334 1.20472 1.39483 1.58969 1.79112 
1.94023 2.01122 2.00385 1.87107 1.75388 1.66322 1.59522 1.56829 1.57035 
1.62891 1.69256 1.76694 1.80216 1.74734 1.79216 2.08845 2.31291 2.33672 
2.37077 2.43668 2.53252 2.73235 2.88229 2.83938 2.77474 2.61953 2.46557 
2.31691 2.13566 1.80301 1.5026 1.37173 1.27441 1.38254 1.51178 1.79553 
2.04539 1.99022 1.93631 1.89697 1.86 1.86 1.85831 1.82031 1.7781 
1.66405 1.55 
TEXTURE_COORDINATES TCoords 2 float
0 0 0.00787402 0 0.015748 0 0.023622 0 0.0314961 
0 0.0393701 0 0.0472441 0 0.0551181 0 0.0629921 0 
0.0708661 0 0.0787402 0 0.0866142 0 0.0944882 0 0.102362 
0 0.110236 0 0.11811 0 0.125984 0 0.133858 0 
0.141732 0 0.149606 0 0.15748 0 0.165354 0 0.173228 
0 0.181102 0 0.188976 0 0.19685 0 0.204724 0 
0.212598 0 0.220472 0 0.228346 0 0.23622 0 0.244094 
0 0.251969 0 0.259843 0 0.267717 0 0.275591 0 
0.283465 0 0.291339 0 0.299213 0 0.307087 0 0.314961 
0 0.322835 0 0.330709 0 0.338583 0 0.346457 0 
0.354331 0 0.362205 0 0.370079 0 0.377953 0 0.385827 
0 0.393701 0 0.401575 0 0.409449 0 0.417323 0 
0.425197 0 0.433071 0 0.440945 0 0.448819 0 0.456693 
0 0.464567 0 0.472441 0 0.480315 0 0.488189 0 
0.496063 0 0.503937 0 0.511811 0 0.519685 0 0.527559 
0 0.535433 0 0.543307 0 0.551181 0 0.559055 0 
0.566929 0 0.574803 0 0.582677 0 0.590551 0 0.598425 
0 0.606299 0 0.614173 0 0.622047 0 0.629921 0 
0.637795 0 0.645669 0 0.653543 0 0.661417 0 0.669291 
0 0.677165 0 0.685039 0 0.692913 0 0.700787 0 
0.708661 0 0.716535 0 0.724409 0 0.732283 0 0.740157 
0 0.748031 0 0.755906 0 0.76378 0 0.771654 0 
0.779528 0 0.787402 0 0.795276 0 0.80315 0 0.811024 
0 0.818898 0 0.826772 0 0.834646 0 0.84252 0 
0.850394 0 0.858268 0 0.866142 0 0.874016 0 0.88189 
0 0.889764 0 0.897638 0 0.905512 0 0.913386 0 
0.92126 0 0.929134 0 0.937008 0 0.944882 0 0.952756 
0 0.96063 0 0.968504 0 0.976378 0 0.984252 0 
0.992126 0 1 0 
FIELD FieldData 7
Curvature 1 128 double
0 0.013914795187 0.026249324516 0.0383534908 0.050310657776 0.062293629699 0.074487944124 0.087005538646 0.099824500536 
0.11276822013 0.12553446538 0.13770174305 0.14878666 0.15827302704 0.16565134924 0.17048894751 0.17248111342 0.17155446878 
0.16795119491 0.16231626375 0.15575485425 0.1498349025 0.14652479125 0.14785377439 0.15543234638 0.16988360299 0.19075304895 
0.21669503593 0.24565175147 0.27486225168 0.30082418655 0.31960599004 0.327590883 0.3225905909 0.30464259839 0.27616940534 
0.24122274279 0.20439233453 0.17046105056 0.14475168563 0.13391942238 0.14425647425 0.17829734915 0.23763167023 0.32942645732 
0.47088554852 0.69188870703 1.0260197079 1.449039989 1.7540127778 1.6661363547 1.2735202641 0.87060350749 0.57892857522 
0.38705751123 0.26097379502 0.17839258479 0.13314172724 0.13023190049 0.16332774364 0.2151162048 0.27314917095 0.3278848192 
0.37002259802 0.39271335273 0.39480142248 0.38092354072 0.35826802326 0.33276497239 0.30759377599 0.283250838 0.25905376894 
0.23393123967 0.20737910245 0.17990886621 0.15307319109 0.12993227636 0.11509939518 0.11368600915 0.12717173429 0.152020382 
0.18316166463 0.21609271221 0.24677537299 0.2713687626 0.2866506722 0.29075849263 0.28365157344 0.266970401 0.24321965964 
0.21505075329 0.18456220653 0.15319929 0.12177163103 0.090688262385 0.060444394743 0.033828563378 0.029438121634 0.056798087525 
0.094792496555 0.13912738698 0.18968075432 0.24573039984 0.30421233407 0.35825310671 0.39763741478 0.41240177501 0.39865813715 
0.36112945162 0.30998688362 0.2551688361 0.20328985723 0.15728392808 0.11805397211 0.085598468931 0.060320109251 0.043983015411 
0.038897549558 0.042708868348 0.049145731112 0.054111284501 0.055857722098 0.053803741519 0.047928962177 0.038672178041 0.026718237913 
0.012958729352 0 
Torsion 1 128 double
0 0 0.10770943205 0.13990780627 0.16594260118 0.18369233189 0.19291553815 0.1949408863 0.19202502256 
0.18629099104 0.17933268111 0.17192682307 0.16385939941 0.15438665269 0.14207681105 0.12520146919 0.10201987794 0.070457191897 
0.028654900555 -0.024773079121 -0.089613715118 -0.16121538439 -0.22730858644 -0.26893773686 -0.27157680553 -0.23822035447 -0.18523237064 
-0.12875406854 -0.077213391661 -0.032579134383 0.0060122176778 0.040511900323 0.073120955153 0.10662256404 0.1446772523 0.19304580253 
0.26094786324 0.36325559482 0.5198791666 0.73107920896 0.89971596344 0.86334814883 0.67622658225 0.49676405943 0.3725500335 
0.29024017059 0.22958397137 0.174628298 0.1198537948 0.069447192504 0.021338908064 -0.036744850408 -0.11101324205 -0.20261273275 
-0.3272597914 -0.52988569085 -0.89128133446 -1.3610407641 -1.3094564634 -0.82284316169 -0.49619627102 -0.33321981617 -0.25175959893 
-0.2093068542 -0.18555675834 -0.16926483156 -0.15241859186 -0.12928250348 -0.09720154633 -0.056147777126 -0.0077098285838 0.046600584578 
0.10770609497 0.18090322148 0.27671178826 0.41104878045 0.59357120841 0.77746085628 0.81774250365 0.67160332681 0.48109071254 
0.33347895731 0.23248718733 0.16231725429 0.11054749844 0.069704092873 0.035623591912 0.0064439775634 -0.018285027514 -0.038078100606 
-0.051375637973 -0.055580397705 -0.046276117066 -0.012736028969 0.07716733283 0.34988480333 1.4750467052 2.1274515075 0.53771870311 
0.15110117183 0.037070974838 -0.0039577501841 -0.017820996867 -0.018948419382 -0.013395634756 -0.0037098451964 0.0089580566126 0.024262295366 
0.042623499377 0.064671104474 0.092265490292 0.12874924457 0.18101969795 0.26423114234 0.40910377493 0.67062691212 1.0296292169 
1.075097793 0.72264939747 0.43263856611 0.27167352568 0.1825815541 0.12747353617 0.089736216886 0.062634040979 0.041027065419 
0 0 
Abscissas 1 128 double
0 0.50216007038 1.0043201408 1.5064793948 2.0086386013 2.510800911 3.0129633647 3.515121999 4.0172803864 
4.5194389318 5.021597491 5.523756952 6.0259165132 6.5280765068 7.0302365589 7.5323964491 8.0345563134 8.5367173725 
9.0388786526 9.5410373181 10.043195433 10.545357333 11.047520136 11.549678789 12.051836326 12.553994991 13.056153995 
13.558314238 14.060474897 14.56264196 15.064811381 15.566960791 16.069102259 16.571266291 17.073439964 17.575601542 
18.077757586 18.579915444 19.082074186 19.584234868 20.08639657 20.588552577 21.090705328 21.592866897 22.095033948 
22.597197504 23.099358719 23.601518707 24.103677828 24.605837432 25.107997362 25.610155335 26.112312088 26.614472904 
27.116636264 27.618789728 28.120936731 28.623100551 29.125276132 29.627437481 30.129588052 30.631744963 31.133907044 
31.636069915 32.138233442 32.640396561 33.142559335 33.64471751 34.146871539 34.649025152 35.151178361 35.653336359 
36.155499339 36.657662088 37.159824581 37.661984431 38.16414114 38.666293433 39.168440086 39.670598153 40.172771993 
40.674936042 41.177085473 41.679238605 42.181397658 42.683557755 43.185719626 43.687881803 44.190044535 44.692205226 
45.194361939 45.696519156 46.198677434 46.700836823 47.202998763 47.705156836 48.207305151 48.709460084 49.211633505 
49.713804898 50.215969984 50.718132894 51.220288238 51.722440734 52.224582217 52.726725497 53.228876267 53.731030079 
54.233196936 54.73536096 55.237511824 55.739669057 56.241859795 56.744046213 57.246206181 57.748365572 58.25052075 
58.752675623 59.254827742 59.756980973 60.259147008 60.761313862 61.263493452 61.765672318 62.267835584 62.76999767 
63.272139632 63.774281594 
ParallelTransportNormals 3 128 double
0 -0.94234959068 0.33463001799 -0.019047791399 -0.92959682006 0.36592260357 -0.038095582797 -0.91684404944 0.39721518914 
-0.048815759891 -0.9091719639 0.41309191966 -0.059050348073 -0.90179613661 0.42806974108 -0.05950371671 -0.90146936489 0.42873335753 
-0.05950311129 -0.90146975978 0.42873261125 -0.047042650839 -0.90786957234 0.41611411154 -0.03377711928 -0.91468287176 0.40268033839 
-0.0066029737621 -0.92419164848 0.37993870875 0.021788898767 -0.93393641964 0.35638215763 0.065588983013 -0.94142006839 0.32605917799 
0.11110308375 -0.94865218884 0.29498349777 0.1729789636 -0.94736130597 0.25908098637 0.23706977674 -0.94491664368 0.22252505524 
0.31428911953 -0.9270339478 0.18323027796 0.39360773911 -0.90668268104 0.14349755398 0.47405653796 -0.8687913967 0.10391886766 
0.55471437372 -0.82765592669 0.064368672017 0.61937249933 -0.7799407059 0.029699923321 0.68065729487 -0.73083823054 -0.0039396359953 
0.71998735166 -0.69128268211 -0.028009295617 0.75408279856 -0.65400338204 -0.049797229546 0.77366488713 -0.62992660559 -0.062357516233 
0.78934638152 -0.60939812483 -0.072437790626 0.80071917742 -0.59364868524 -0.078208578745 0.81079047881 -0.57934281287 -0.082677634388 
0.8244315274 -0.55904782151 -0.084237833701 0.83927345052 -0.5367380711 -0.084819484313 0.85580953081 -0.51027555055 -0.078209415255 
0.87296940828 -0.48228395916 -0.068951318859 0.88856981683 -0.45439616028 -0.051227963498 0.90355126075 -0.42654955742 -0.030144684829 
0.91676364605 -0.39577220575 0.0069206161396 0.92922021791 -0.36374271959 0.050814083818 0.93318334352 -0.33383151343 0.1121695189 
0.93326075419 -0.3048894112 0.18151372862 0.92277094742 -0.28263761564 0.25199414341 0.90713083918 -0.26364657406 0.32302832733 
0.88602221075 -0.24704705576 0.38720599689 0.86203806679 -0.23170507371 0.44777830105 0.83489649093 -0.21358685498 0.50373383674 
0.80594942028 -0.19388111798 0.55704939425 0.77110998005 -0.1631565448 0.61128700821 0.73260859939 -0.1255840777 0.66609765407 
0.68272024371 -0.052192521059 0.71970532345 0.62519783099 0.045212873537 0.77250649321 0.5807827655 0.18594818873 0.77597932916 
0.54563189126 0.3573088214 0.74458720662 0.54960936398 0.4805317769 0.6715760111 0.58004255282 0.5712075685 0.57042505336 
0.61962838262 0.6132289406 0.48239826805 0.66492448354 0.62489514766 0.40255956563 0.70822112639 0.61645523688 0.33736988029 
0.75026570937 0.59542488291 0.28135340375 0.78780065362 0.56663269826 0.23415797483 0.82239208155 0.53277423743 0.19272019063 
0.85359493065 0.49492154436 0.15130840777 0.88242805826 0.45427558054 0.10991480831 0.90697158473 0.41093267831 0.055809769966 
0.92826617161 0.36554711762 -0.0079228994134 0.93656572889 0.33478081665 -0.077631805383 0.93426630911 0.3159382437 -0.15221503611 
0.92896393305 0.31004556369 -0.20064523559 0.92117556307 0.31487343779 -0.22742467801 0.91879837998 0.3155870307 -0.23703361475 
0.92100384219 0.31281630645 -0.23210113222 0.92653252218 0.30346056563 -0.22138051334 0.93505720908 0.28816818255 -0.20544166995 
0.94449757801 0.26715786205 -0.18896268563 0.95482474878 0.2406099453 -0.17196059619 0.96320181094 0.2151964293 -0.15942579223 
0.96955054997 0.19096281234 -0.15153744667 0.97228436119 0.18127332487 -0.14755008141 0.97099645906 0.18776460855 -0.14790267127 
0.96594443513 0.21095859139 -0.14501642344 0.95642255686 0.25398685062 -0.13828409051 0.9411201664 0.30755730749 -0.1264640411 
0.91843654604 0.37458926776 -0.10814740383 0.88612920019 0.44802500892 -0.088171994554 0.84052420997 0.53030921536 -0.06590456641 
0.78323460086 0.6131647612 -0.048407478326 0.70849771449 0.69687342146 -0.038033382123 0.62799487682 0.77242087867 -0.037043208312 
0.53826326289 0.83490580502 -0.051072606384 0.45118981766 0.88643408995 -0.072084668881 0.36863791179 0.91932515091 -0.10497422885 
0.28990245628 0.94433763581 -0.14137872485 0.21808314102 0.95507262937 -0.18415295929 0.14785527508 0.95995539121 -0.22937522874 
0.080729313291 0.95343153034 -0.27936897905 0.015912096803 0.94227662515 -0.32914463919 -0.04403122227 0.92134531241 -0.37845989812 
-0.0977796501 0.90018097004 -0.4225216973 -0.13728407807 0.87848081939 -0.45450414317 -0.16848957517 0.86112284912 -0.47956051767 
-0.17875326628 0.85472208534 -0.48713940677 -0.1804803488 0.85330612984 -0.48876605173 -0.1583607092 0.86581506465 -0.47376530763 
-0.12679816426 0.88135909001 -0.45220971597 -0.065869546216 0.90634180909 -0.41026949416 0.0066015130636 0.92949058378 -0.35678418162 
0.11917223227 0.94626804197 -0.2631900046 0.23689742708 0.94937912024 -0.15327335015 0.37454419133 0.8996709094 0.019728163533 
0.49779772792 0.83504698692 0.19294752639 0.56108554865 0.70828055227 0.36707450228 0.6114737909 0.58367727292 0.52680277438 
0.60653193283 0.46835240524 0.62477075518 0.59898338662 0.35986987004 0.71343809028 0.57932922978 0.28316352286 0.75891268853 
0.56042832681 0.21154948708 0.80024397751 0.54548996224 0.16672386956 0.81977913249 0.53191058922 0.12595250245 0.83733202661 
0.52665180423 0.11000376744 0.84274829187 0.52243827352 0.097508111765 0.84705798211 0.52587088494 0.11027208535 0.84327296262 
0.52958938502 0.12543985094 0.83875413576 0.53588154016 0.16224727071 0.82762935554 0.54189999528 0.19991905533 0.8160771054 
0.54476771524 0.24754109376 0.79960397687 0.54735850723 0.2949334873 0.78303744284 0.54563761005 0.33875037576 0.76501661197 
0.54381268639 0.38221026149 0.74702401478 0.53975097684 0.41799384468 0.7296385007 0.53591444922 0.4517935793 0.71321684277 
0.53591444922 0.4517935793 0.71321684277 0.53591444922 0.4517935793 0.71321684277 
FrenetTangent 3 128 double
-0.54049033669 0.33800573546 0.77046889537 -0.54049033669 0.33800573546 0.77046889537 -0.54885403667 0.33640541506 0.76523894514 
-0.56219361468 0.33304415782 0.75698079801 -0.58019666767 0.32697051679 0.74596387846 -0.60241229417 0.31706758321 0.73250773069 
-0.62823039335 0.30217519641 0.71694959624 -0.65685926196 0.28120248382 0.69961494629 -0.68730713273 0.25322424862 0.68079834401 
-0.71837550176 0.21756176039 0.66075980423 -0.74867844572 0.17385298472 0.63973097832 -0.7766919843 0.12211497063 0.61793000856 
-0.80084130909 0.062794209324 0.59557542338 -0.81963023017 -0.0032045992987 0.57288394666 -0.83179752486 -0.074527408294 0.55005321837 
-0.83648748609 -0.14943356607 0.52721750251 -0.83339868088 -0.22592271184 0.50438632711 -0.82286943298 -0.3019220046 0.48138238376 
-0.80587411064 -0.37550613275 0.45777949065 -0.78390518689 -0.44510534514 0.43286705776 -0.7587565267 -0.50964889016 0.40564336793 
-0.73225033036 -0.56860077154 0.37483678621 -0.70595533077 -0.62188169683 0.33895460773 -0.68094902194 -0.66968833735 0.2963544505 
-0.6576489066 -0.71225329582 0.24534294009 -0.63571924133 -0.74959268908 0.18431453194 -0.61405651366 -0.78128205802 0.1119506313 
-0.59084113361 -0.80631906691 0.027501221435 -0.56369176131 -0.82311073933 -0.068849902181 -0.52995437069 -0.82965008328 -0.17558218674 
-0.48714704751 -0.82393818787 -0.28950581456 -0.43354812559 -0.80463292382 -0.4057115733 -0.36878151544 -0.77178711466 -0.51802011883 
-0.29415981392 -0.72737799315 -0.61999295073 -0.21255214741 -0.67532439828 -0.70622839204 -0.1277642762 -0.62088185316 -0.77342227415 
-0.043673969217 -0.56966187663 -0.82071793616 0.036471087222 -0.52670982768 -0.84926239598 0.11037892304 -0.49595959319 -0.86130167495 
0.17667538504 -0.48012238686 -0.85922540812 0.23461207358 -0.4808680653 -0.84482132946 0.28369555384 -0.49910904635 -0.81878384973 
0.32328792433 -0.53525792668 -0.78037418583 0.35217539815 -0.58935460967 -0.72707195861 0.36802724909 -0.66090089505 -0.65403818761 
0.36655875319 -0.74804029764 -0.5532362909 0.34028688563 -0.84506169663 -0.41240218763 0.27742879528 -0.9362090125 -0.21574510069 
0.1646809591 -0.98525067185 0.046489733541 0.002891032199 -0.93678747199 0.34988694496 -0.17198548127 -0.7660990717 0.61928443108 
-0.31080285802 -0.52715359609 0.7908923249 -0.39617871383 -0.29442518056 0.86968743797 -0.43793884759 -0.1023668992 0.89315764774 
-0.44997620462 0.04530518801 0.8918906072 -0.4419344842 0.15433291167 0.88367146839 -0.41935188021 0.23078045406 0.87800021788 
-0.38509857675 0.27880956848 0.87975241444 -0.34044739324 0.30054421759 0.89093700434 -0.28582801908 0.29642704558 0.91128115868 
-0.22150423633 0.26582717456 0.9382280035 -0.14836656029 0.20803538266 0.96680331162 -0.068753839429 0.12370444199 0.98993440217 
0.013089501863 0.01634088077 0.99978079625 0.091466455507 -0.10712564197 0.99002928459 0.16071408798 -0.23752747205 0.95799357093 
0.21688079752 -0.36588874369 0.90503488712 0.25856513153 -0.48545741774 0.83514978795 0.28664168059 -0.59226248406 0.7530349905 
0.30342667733 -0.68449264442 0.66287409907 0.3119222415 -0.76154936508 0.56810833457 0.31535911011 -0.82341357708 0.47174009026 
0.31693791166 -0.87043287657 0.37669213894 0.31966181625 -0.90334301759 0.28598551678 0.32619962801 -0.9233278278 0.20263150074 
0.33875402028 -0.931931746 0.12941767479 0.3589616069 -0.93082061198 0.068699003529 0.38784323037 -0.92145560999 0.022297701187 
0.42578143791 -0.90478633317 -0.0084769351161 0.47247330413 -0.8810506158 -0.02277694633 0.52685143846 -0.84971769863 -0.020184013954 
0.58697487422 -0.80960475253 -0.00080107279323 0.649950425 -0.75919179682 0.034529128121 0.71201606034 -0.69712624489 0.083953132816 
0.7689077465 -0.62283959625 0.14440122823 0.81653707114 -0.53709522838 0.21165048338 0.85182896331 -0.44220728363 0.28078485637 
0.87338740632 -0.34178096387 0.34695851511 0.88168706888 -0.24006799417 0.40619609888 0.87874362989 -0.14124203608 0.45591701018 
0.86747897092 -0.04886620259 0.49506800468 0.85105667488 0.034324348052 0.52395073744 0.83238366294 0.10638424852 0.54389321502 
0.81382210243 0.16600694945 0.55689790656 0.79705892864 0.2123309109 0.56534294773 0.7830678983 0.24476399153 0.5717475449 
0.77212482279 0.26283408779 0.57856849234 0.76382537769 0.26606170477 0.58803227944 0.75708699091 0.25384364552 0.60198230192 
0.75012493694 0.22537306228 0.62170697421 0.7403998924 0.17964752566 0.64771503445 0.72456933994 0.11562463469 0.67943374619 
0.69854791349 0.032672469902 0.71481698516 0.65790299975 -0.068582247878 0.74997341166 0.59886793884 -0.1850895737 0.77916560597 
0.52002438368 -0.31044937571 0.79573602753 0.4240039905 -0.43529501671 0.7941906978 0.31777468471 -0.54965681233 0.77259086095 
0.21067406925 -0.64621649574 0.73349892787 0.11133808855 -0.7222117411 0.68265220358 0.025585497276 -0.77895262416 0.62656060493 
-0.043894419857 -0.81999813655 0.57068059014 -0.096727312434 -0.84941026684 0.51879285425 -0.13384469692 -0.87074743199 0.47316435495 
-0.1567593335 -0.88670298148 0.43495325496 -0.16717326719 -0.89908506774 0.40459750333 -0.16682826264 -0.90896207861 0.38204223645 
-0.15748407599 -0.91684129976 0.36687981256 -0.14094398126 -0.92285930282 0.3584208439 -0.11908395696 -0.92697242511 0.35572620689 
-0.093851161139 -0.92912877735 0.35764741667 -0.067221233032 -0.92940354109 0.36289166929 -0.041118419103 -0.92807520285 0.37011578387 
-0.017319846358 -0.9256434535 0.37800029089 0.0026389707212 -0.9227647562 0.38535469447 0.017535653416 -0.9201334073 0.39121223604 
0.026505641388 -0.91835424949 0.394870768 0.026505641388 -0.91835424949 0.394870768 
FrenetNormal 3 128 double
-0.8379973612 -0.1345991704 -0.5288132808 -0.8379973612 -0.1345991704 -0.5288132808 -0.83485555391 -0.17445412942 -0.52209382379 
-0.82697525223 -0.23424063454 -0.51111961157 -0.81156630965 -0.3094406697 -0.4955871235 -0.7861398658 -0.39451913884 -0.47575073357 
-0.74916277388 -0.48361661629 -0.452625791 -0.70029370891 -0.57146685957 -0.42780176446 -0.64012491279 -0.65412350297 -0.40294235182 
-0.56970678998 -0.72907023361 -0.37932936602 -0.49025830861 -0.79476453992 -0.35776544959 -0.4029916401 -0.85030574628 -0.33849353887 
-0.30929311938 -0.8949609907 -0.32153163363 -0.21091666254 -0.92805968686 -0.30695175368 -0.11008934698 -0.94911075879 -0.29507474176 
-0.0097205800032 -0.95790256056 -0.28692890199 0.086829468132 -0.954821721 -0.28421140824 0.17586093033 -0.94088249206 -0.28950486925 
0.25347745509 -0.91753090542 -0.30640857912 0.31585588719 -0.88611589603 -0.33916615005 0.35914843141 -0.84686611755 -0.39221191103 
0.37983342648 -0.79781179806 -0.46821245499 0.3759335837 -0.73461026585 -0.56482005803 0.34996830243 -0.65305265779 -0.67159840191 
0.31167619072 -0.55375598255 -0.77214782518 0.27580103675 -0.44358073578 -0.85274258658 0.25513789525 -0.33072034814 -0.90858610254 
0.25620816702 -0.21984464825 -0.94128938472 0.27944663836 -0.11160448856 -0.95365298429 0.32201926471 -0.0053380194878 -0.94671806717 
0.37951217167 0.09883740198 -0.91989221082 0.44690761939 0.19896623489 -0.87217315775 0.51928525355 0.29115872981 -0.8034733471 
0.59250935079 0.37021248248 -0.71545467154 0.66424826084 0.43021181561 -0.61130355935 0.7342669841 0.4650072798 -0.49459096817 
0.80451742877 0.46700341718 -0.3669598277 0.87662240819 0.42487643004 -0.2258609587 0.9457061088 0.31896283405 -0.062471323558 
0.98339687014 0.12284936309 0.13356133346 0.92311303514 -0.16216870041 0.34865977251 0.72673772229 -0.44515188323 0.52315588868 
0.47377185116 -0.62231049521 0.62311305604 0.24909327193 -0.68980183291 0.67979847984 0.068185067291 -0.68233011144 0.72785741435 
-0.0821940719 -0.61833631888 0.78160369197 -0.21493418909 -0.49686637653 0.84078956834 -0.33500187424 -0.30473200641 0.89157845899 
-0.43335672425 -0.029932609678 0.9007252569 -0.48368011735 0.30492768147 0.82041005184 -0.46197082029 0.61796145119 0.63616554925 
-0.38005095115 0.83161376953 0.40494420956 -0.26958249854 0.94274646903 0.19635267151 -0.14699746849 0.98827877978 0.041192204283 
-0.0080901265195 0.99846455257 -0.054800429904 0.16835314431 0.98185463078 -0.087285180944 0.4193688547 0.90701575643 -0.038107496678 
0.74519676483 0.65628349548 0.11821063932 0.93839861422 0.16825354791 0.30182575178 0.89454065727 -0.25849355022 0.36466161984 
0.79452682955 -0.50863487668 0.33168913059 0.70954876396 -0.6585887002 0.25060222572 0.63840906905 -0.75705275226 0.13894240123 
0.57016743579 -0.82150687568 0.0059622451406 0.49717892036 -0.85650461384 -0.13861084954 0.41666730263 -0.86355387927 -0.28401242316 
0.33041038933 -0.84486904314 -0.42074371601 0.24354100271 -0.8038625878 -0.54267183447 0.16266753101 -0.74451718352 -0.64748238416 
0.094279605373 -0.67069114599 -0.7357205602 0.043961715736 -0.58573220446 -0.80931152977 0.016148607523 -0.4923778323 -0.87023174657 
0.014650678258 -0.39262716143 -0.91958102945 0.044345834746 -0.28722791842 -0.95683518425 0.11285394183 -0.1747857136 -0.97811755026 
0.23153237958 -0.050751640469 -0.97150245918 0.41021946171 0.091225618635 -0.90741273946 0.63156863814 0.24805366225 -0.73456819695 
0.8134156599 0.38685335848 -0.43439549176 0.87568546943 0.47220658605 -0.10097474298 0.84036137278 0.51719808852 0.16216935705 
0.76171204127 0.55191617243 0.33938665972 0.6669923453 0.59161591461 0.45289272559 0.56432904264 0.63928717561 0.52234532518 
0.45598038469 0.69252055775 0.55901445945 0.34380961989 0.74694714669 0.56909129788 0.23089559807 0.79812676003 0.55648980019 
0.12129467597 0.84260294221 0.52469789724 0.019166475099 0.87839867046 0.47754415708 -0.072076639638 0.90498878949 0.41928540269 
-0.15033457641 0.92288529602 0.35451691853 -0.21521148507 0.93299603707 0.2884482822 -0.26808925621 0.93622889362 0.22716427854 
-0.31283236225 0.93276840172 0.17910617487 -0.35842512342 0.91976481808 0.15988780544 -0.42814356133 0.87894592008 0.21011225684 
-0.57946043506 0.66495060559 0.47123910738 -0.51015088075 -0.30922631509 0.80257408687 -0.23771746985 -0.7512308073 0.61574562824 
-0.17611570588 -0.83809753093 0.51630977793 -0.19135815985 -0.86741273968 0.45932253777 -0.24142737206 -0.88078069212 0.4073551232 
-0.31206162926 -0.88504677848 0.34541241934 -0.39550501571 -0.87892710568 0.26657630326 -0.4844927406 -0.85842075757 0.16846538896 
-0.57066966486 -0.819452136 0.053238429878 -0.64479333399 -0.76088263127 -0.072795452272 -0.69926807006 -0.68615303716 -0.20054469774 
-0.73010936789 -0.60296596102 -0.321515724 -0.73726355213 -0.52063456697 -0.43056021923 -0.72282998009 -0.44737152071 -0.52666454442 
-0.6880508064 -0.38934812305 -0.61236764031 -0.63130682318 -0.35061086168 -0.69175408829 -0.54369513941 -0.33466680049 -0.76967118177 
-0.40300416439 -0.34463737514 -0.84782823917 -0.1603018219 -0.3801253838 -0.91093798828 0.24638691012 -0.41361141645 -0.87648108177 
0.70332238281 -0.36492562365 -0.61005484593 0.9367320827 -0.24148378729 -0.25341386253 0.99167063431 -0.12875120033 -0.0035329116659 
0.98827462738 -0.043486188544 0.14636328873 0.97107283417 0.022581652814 0.2377133141 0.95221180485 0.075809389783 0.29588108273 
0.93565155064 0.11828018849 0.33251462044 0.92218182914 0.15128170896 0.35594173475 0.91253288592 0.17463752911 0.36984519131 
0.90699511867 0.18817652079 0.37676179708 0.90699511867 0.18817652079 0.37676179708 
FrenetBinormal 3 128 double
-0.07503744776 -0.9314693694 0.35599746531 -0.07503744776 -0.9314693694 0.35599746531 -0.042136095522 -0.92541728612 0.37659978227 
0.0070902618824 -0.91335256833 0.40710786546 0.068789184238 -0.89293714957 0.44489470108 0.1381431838 -0.86245161996 0.48692264683 
0.20995645049 -0.82146522697 0.53020106542 0.27950783751 -0.77094149681 0.57229762996 0.34329142332 -0.71274113307 0.61167889934 
0.39921274019 -0.64894027066 0.64769260702 0.44623690542 -0.58148470813 0.6802559507 0.48409430851 -0.511925846 0.70963696963 
0.51282644624 -0.44170319491 0.73614354826 0.53265415352 -0.37241770657 0.75998987136 0.54405258322 -0.30599743946 0.78126330628 
0.54789980466 -0.24513729582 0.79982092387 0.54580883299 -0.19306581621 0.81536391166 0.54033214733 -0.15356835375 0.82731972736 
0.53508513113 -0.13088996091 0.83459674129 0.53453504703 -0.12915049567 0.83521999076 0.54341598927 -0.15190716804 0.82560479341 
0.56527517354 -0.20047318397 0.80017153204 0.60025079059 -0.27131331049 0.75238824814 0.64329667869 -0.35360961096 0.67906525918 
0.68582495419 -0.43133461997 0.58616941052 0.72096798426 -0.4912707312 0.4887312496 0.74688637184 -0.52936036604 0.40241564386 
0.76502557473 -0.54910644958 0.33647879136 0.77727805484 -0.55680620411 0.29292605983 0.78450746214 -0.55825822418 0.26999221654 