# vtk DataFile Version 4.2
vtk output
ASCII
DATASET POLYDATA
POINTS 128 float
0 0 0 -0.296886 0.0445743 0.147135 -0.886657 0.134119 0.427961 
-1.39294 0.212573 0.64267 -1.82249 0.276043 0.801322 -2.27972 0.33403 0.966874 
-2.76071 0.381717 1.14027 -3.23729 0.411072 1.30855 -3.70865 0.417662 1.47432 
-4.18045 0.39799 1.64384 -4.65006 0.347911 1.8183 -5.11265 0.263515 1.99725 
-5.56521 0.143204 2.17991 -6.00556 -0.0133997 2.36508 -6.43256 -0.204163 2.54996 
-6.84579 -0.425916 2.73106 -7.24695 -0.67457 2.90414 -7.63862 -0.945787 3.0645 
-8.02396 -1.23578 3.20623 -8.4061 -1.54112 3.32271 -8.7866 -1.85915 3.40565 
-9.1658 -2.18754 3.44572 -9.54015 -2.52359 3.43096 -9.90318 -2.86414 3.34846 
-10.2392 -3.2036 3.18696 -10.5278 -3.53529 2.93817 -10.7465 -3.85271 2.61116 
-10.8736 -4.15 2.22402 -10.9063 -4.42583 1.80172 -10.8518 -4.68153 1.37106 
-10.7263 -4.92197 0.94659 -10.55 -5.15374 0.536115 -10.3378 -5.38246 0.141932 
-10.1019 -5.61354 -0.236511 -9.85219 -5.85499 -0.599768 -9.59726 -6.11534 -0.94823 
-9.34367 -6.3942 -1.28073 -9.09804 -6.68987 -1.59463 -8.8811 -7.04202 -1.88099 
-8.72552 -7.50445 -2.12084 -8.70201 -8.0051 -2.22432 -8.89168 -8.39963 -2.07238 
-9.22596 -8.62988 -1.71866 -9.55476 -8.69619 -1.31337 -9.83599 -8.64355 -0.905393 
-10.0878 -8.53769 -0.486143 -10.3116 -8.40306 -0.0552619 -10.499 -8.24058 0.382819 
-10.6463 -8.05803 0.827567 -10.7526 -7.86738 1.28076 -10.8147 -7.67914 1.74307 
-10.8282 -7.50304 2.2143 -10.7891 -7.35216 2.69294 -10.694 -7.24221 3.1761 
-10.5423 -7.19396 3.65474 -10.3371 -7.23097 4.11507 -10.0937 -7.36608 4.53781 
-9.83678 -7.60306 4.90079 -9.58735 -7.92801 5.19723 -9.36307 -8.31441 5.43212 
-9.17093 -8.742 5.61552 -9.00968 -9.1959 5.76092 -8.87638 -9.66623 5.8786 
-8.76687 -10.1471 5.97613 -8.67638 -10.6344 6.05947 -8.59966 -11.1255 6.13326 
-8.53103 -11.6186 6.20125 -8.46444 -12.1124 6.2664 -8.39337 -12.6056 6.33123 
-8.31081 -13.0968 6.39788 -8.20933 -13.584 6.46836 -8.08109 -14.0642 6.54457 
-7.91874 -14.5327 6.62848 -7.71549 -14.9833 6.72209 -7.46692 -15.4081 6.82732 
-7.17115 -15.7978 6.94601 -6.82977 -16.1432 7.07953 -6.44819 -16.436 7.2287 
-6.03388 -16.6702 7.39359 -5.59655 -16.8433 7.57339 -5.14549 -16.9553 7.76696 
-4.68932 -17.0089 7.97288 -4.23529 -17.008 8.18977 -3.78892 -16.958 8.41639 
-3.35434 -16.8644 8.65161 -2.93396 -16.7334 8.89452 -2.52894 -16.5711 9.14422 
-2.13885 -16.3835 9.39983 -1.7622 -16.1766 9.66038 -1.39613 -15.9559 9.9247 
-1.0372 -15.7269 10.1915 -0.681218 -15.4946 10.4596 -0.324087 -15.2643 10.7277 
0.0380597 -15.041 10.9951 0.408442 -14.8301 11.2614 0.789209 -14.6375 11.527 
1.18137 -14.4693 11.7929 1.58407 -14.3329 12.0612 1.99493 -14.2363 12.3348 
2.40899 -14.1894 12.6173 2.81699 -14.2038 12.9128 3.20156 -14.2935 13.2263 
3.54162 -14.4676 13.5582 3.81039 -14.7231 13.8997 3.99014 -15.0499 14.24 
4.08401 -15.4243 14.5666 4.10152 -15.8254 14.8705 4.06037 -16.2418 15.1507 
3.97742 -16.6658 15.4079 3.8652 -17.0956 15.6435 3.73475 -17.5304 15.8591 
3.59503 -17.9713 16.056 3.45429 -18.4193 16.235 3.31962 -18.8757 16.3967 
3.19752 -19.3413 16.5417 3.09333 -19.8158 16.6705 3.01122 -20.2982 16.7844 
2.95257 -20.7873 16.8859 2.91735 -21.2809 16.9779 2.90279 -21.775 17.0636 
2.90437 -22.2676 17.1477 2.91369 -22.7648 17.2406 2.92367 -23.2661 17.3485 
2.93435 -23.7436 17.4602 2.93983 -24.1924 17.5785 2.90744 -24.7118 17.7698 
2.82703 -25.3055 18.0445 2.77853 -25.6022 18.1924 
LINES 1 129
128 0 1 2 3 4 5 6 7 8 9 10 11 12 13 14 15 16 17 18 19 20 21 22 23 24 25 26 27 28 29 30 31 32 33 34 35 36 37 38 39 40 41 42 43 44 45 46 47 48 49 50 51 52 53 54 55 56 57 58 59 60 61 62 63 64 65 66 67 68 69 70 71 72 73 74 75 76 77 78 79 80 81 82 83 84 85 86 87 88 89 90 91 92 93 94 95 96 97 98 99 100 101 102 103 104 105 106 107 108 109 110 111 112 113 114 115 116 117 118 119 120 121 122 123 124 125 126 127 

CELL_DATA 1
FIELD FieldData 2
Length 1 1 double
56.059732553 
Tortuosity 1 1 double
0.77796699256 
POINT_DATA 128
SCALARS MaximumInscribedSphereRadius float
LOOKUP_TABLE default
0.62 0.809062 0.998124 1.13505 1.26736 1.30284 1.33484 1.25133 1.16095 
1.05152 0.940511 0.93 0.93 0.9884 1.05423 1.12811 1.2032 1.22521 
1.23787 1.24 1.24 1.23402 1.22668 1.1449 1.04411 0.986311 0.94046 
0.93 0.93 0.93 0.93 0.93 0.93 0.93 0.93 0.93 
0.93 0.979268 1.05086 1.12825 1.20847 1.23602 1.23912 1.28689 1.35247 
1.44486 1.54843 1.62143 1.68055 1.69537 1.68835 1.6354 1.55794 1.46461 
1.36217 1.46314 1.68771 1.82712 1.91278 1.85646 1.706 1.6734 1.72439 
1.77835 1.83459 1.86 1.86 1.82869 1.76947 1.70078 1.62299 1.57515 
1.55839 1.53074 1.49094 1.4228 1.32084 1.25855 1.24678 1.22536 1.19082 
1.15079 1.10276 1.14797 1.33885 1.52701 1.71058 1.79193 1.68663 1.60555 
1.57257 1.55666 1.57775 1.61769 1.70233 1.77674 1.82457 1.85777 1.84919 
1.82104 1.73146 1.67038 1.7068 1.74859 1.80992 1.81054 1.57441 1.39626 
1.4683 1.54902 1.67213 1.76784 1.70972 1.65726 1.64202 1.63935 1.73485 
1.80833 1.67163 1.535 1.3993 1.27046 1.25788 1.24781 1.30826 1.37102 
1.46051 1.55 
TEXTURE_COORDINATES TCoords 2 float
0 0 0.00787402 0 0.015748 0 0.023622 0 0.0314961 
0 0.0393701 0 0.0472441 0 0.0551181 0 0.0629921 0 
0.0708661 0 0.0787402 0 0.0866142 0 0.0944882 0 0.102362 
0 0.110236 0 0.11811 0 0.125984 0 0.133858 0 
0.141732 0 0.149606 0 0.15748 0 0.165354 0 0.173228 
0 0.181102 0 0.188976 0 0.19685 0 0.204724 0 
0.212598 0 0.220472 0 0.228346 0 0.23622 0 0.244094 
0 0.251969 0 0.259843 0 0.267717 0 0.275591 0 
0.283465 0 0.291339 0 0.299213 0 0.307087 0 0.314961 
0 0.322835 0 0.330709 0 0.338583 0 0.346457 0 
0.354331 0 0.362205 0 0.370079 0 0.377953 0 0.385827 
0 0.393701 0 0.401575 0 0.409449 0 0.417323 0 
0.425197 0 0.433071 0 0.440945 0 0.448819 0 0.456693 
0 0.464567 0 0.472441 0 0.480315 0 0.488189 0 
0.496063 0 0.503937 0 0.511811 0 0.519685 0 0.527559 
0 0.535433 0 0.543307 0 0.551181 0 0.559055 0 
0.566929 0 0.574803 0 0.582677 0 0.590551 0 0.598425 
0 0.606299 0 0.614173 0 0.622047 0 0.629921 0 
0.637795 0 0.645669 0 0.653543 0 0.661417 0 0.669291 
0 0.677165 0 0.685039 0 0.692913 0 0.700787 0 
0.708661 0 0.716535 0 0.724409 0 0.732283 0 0.740157 
0 0.748031 0 0.755906 0 0.76378 0 0.771654 0 
0.779528 0 0.787402 0 0.795276 0 0.80315 0 0.811024 
0 0.818898 0 0.826772 0 0.834646 0 0.84252 0 
0.850394 0 0.858268 0 0.866142 0 0.874016 0 0.88189 
0 0.889764 0 0.897638 0 0.905512 0 0.913386 0 
0.92126 0 0.929134 0 0.937008 0 0.944882 0 0.952756 
0 0.96063 0 0.968504 0 0.976378 0 0.984252 0 
0.992126 0 1 0 
FIELD FieldData 7
Curvature 1 128 double
0 0.012113131176 0.02306858775 0.034137234415 0.045367414086 0.056738398035 0.068101922719 0.079152627582 0.089452429732 
0.098514039028 0.10593388585 0.1115515991 0.11560829109 0.11884714758 0.12251081262 0.12818060814 0.13745256953 0.15156389479 
0.17119017126 0.19641401617 0.22670974462 0.26068764288 0.29563017463 0.32709247916 0.34916551301 0.35604952568 0.34460832254 
0.31602838508 0.27537087466 0.22926363968 0.1837136312 0.1439924545 0.1166877755 0.1125278309 0.14115094747 0.20609070178 
0.31915764041 0.51413033625 0.85240563312 1.3744891127 1.8651501109 1.8137236812 1.2918078014 0.80295652019 0.49860299383 
0.32725236953 0.23278878765 0.18442433331 0.16731814841 0.17270198162 0.19368633856 0.22495987122 0.26208784424 0.30015230437 
0.33305227489 0.3540012359 0.35782445655 0.34323820683 0.31353820784 0.2746123797 0.23223647707 0.19059377317 0.15176243201 
0.11650653219 0.084989028457 0.057770531612 0.038442548612 0.037199759775 0.054226284394 0.078220223722 0.10450330238 0.13152698418 
0.15831147436 0.18383532181 0.20679842636 0.22578899416 0.23945544103 0.24678844455 0.24741420782 0.24157934594 0.23019578595 
0.21440210729 0.19543833596 0.17441573411 0.15222647015 0.12942285705 0.10643791064 0.083507477391 0.060906142276 0.039078730555 
0.020753085879 0.021026062658 0.040409752061 0.064452332392 0.0909409302 0.12007797159 0.15230723383 0.1879655725 0.22670640955 
0.26687222803 0.30492713282 0.33544992009 0.35238671385 0.35158571354 0.33293856968 0.30059433553 0.26073809444 0.21914924398 
0.17985625 0.14511584781 0.11592512545 0.092665342264 0.075272714756 0.063121227264 0.054932335467 0.048848487045 0.043142373769 
0.03699199872 0.030490751048 0.02469295837 0.021200758941 0.020642413582 0.021383745711 0.02124409814 0.018845825257 0.013933765272 
0.0070336168059 0 
Torsion 1 128 double
0 0 0.067873786764 0.080782616439 0.084683206668 0.079030606084 0.064876040195 0.043767999755 0.017107796766 
-0.014545074254 -0.051135434417 -0.092846691897 -0.13901832181 -0.18665356657 -0.22848702335 -0.2535522454 -0.25244305298 -0.22386350662 
-0.17613120719 -0.12078177194 -0.066503698802 -0.017945416454 0.023440407246 0.057924713405 0.086792159813 0.11241504764 0.13798814736 
0.16818859861 0.21091975029 0.28043599697 0.40529570884 0.63740551665 0.99894794359 1.1940534848 0.91680113327 0.56363978045 
0.32592354184 0.16648859459 0.046244657852 -0.044013672046 -0.10718682461 -0.17300740705 -0.26940812101 -0.38544080333 -0.50505036208 
-0.63537415569 -0.77479063011 -0.87589006113 -0.85966988266 -0.72899904247 -0.57228844911 -0.44565869172 -0.35627691891 -0.29446318002 
-0.25088534649 -0.2189063862 -0.19381389745 -0.17264976707 -0.15267767305 -0.13112051224 -0.10545941012 -0.072012059157 -0.023744645795 
0.054609072546 0.20504602673 0.55356807199 1.3361642634 1.4160209288 0.63768936444 0.29119714707 0.15845858328 0.10199846055 
0.076631905878 0.065462258125 0.061264826826 0.060687962023 0.06185968407 0.063701557672 0.065472498467 0.066752832404 0.067290136609 
0.066959581388 0.065911511157 0.064795588137 0.064683146532 0.067732343913 0.078853237061 0.11018740823 0.1982888059 0.49822649924 
1.8602360119 1.8223999439 0.4420014711 0.11865803071 0.0075665879246 -0.04314087997 -0.068735699607 -0.0808573744 -0.083864461578 
-0.080295429789 -0.071779688021 -0.059305533434 -0.043611281201 -0.024814306063 -0.002384439519 0.024590938795 0.057437534274 0.098254170574 
0.14984465411 0.21525919768 0.29633958949 0.38865081551 0.47354573811 0.52210402638 0.51908321787 0.48701253938 0.46785623206 
0.49556331262 0.60083795463 0.78537387205 0.90792394938 0.76928408167 0.5179310378 0.32357281363 0.19947543926 0.12012552268 
0 0 
Abscissas 1 128 double
0 0.50247942633 1.0049588527 1.5074398974 2.0099210855 2.5124002448 3.0148793312 3.517359483 4.0198396983 
4.5223186833 5.0247975666 5.5272760553 6.0297545027 6.5322354747 7.034716768 7.5371937118 8.0396699994 8.5421486144 
9.0446276391 9.547111175 10.049595624 10.552074006 11.054550996 11.557017035 12.059480277 12.561963725 13.06445279 
13.566934578 14.069414217 14.571896457 15.074379518 15.576860136 16.079339914 16.581817121 17.084293356 17.586774188 
18.089256928 18.591735743 19.094212782 19.596691527 20.099171105 20.601651082 21.104131244 21.606610423 22.109089211 
22.611569223 23.114049746 23.616530313 24.119010899 24.621488934 25.123965713 25.62644501 26.128925649 26.631397681 
27.133864778 27.636345369 28.13883416 28.641318425 29.143799833 29.646279647 30.148758404 30.651236934 31.153715304 
31.656208773 32.158713781 32.661186245 33.16363187 33.666104342 34.168600739 34.671082917 35.173551414 35.676022794 
36.178497167 36.68097663 37.183461771 37.685938786 38.188406102 38.690885599 39.193380606 39.695867562 40.198343583 
40.700821497 41.203302162 41.705783002 42.208264113 42.710746123 43.213229649 43.715708371 44.218178323 44.720648219 
45.223118004 45.725600606 46.22811099 46.730609229 47.233078679 47.735551557 48.238033355 48.740511927 49.242981279 
49.7454536 50.247935242 50.750415574 51.252891423 51.755368207 52.257848395 52.760326865 53.262798644 53.765272733 
54.267756791 54.770241972 55.272732632 55.775216693 56.27766369 56.780119021 57.282629111 57.785135797 58.287615882 
58.790092769 59.292539137 59.79499023 60.297498804 60.800005099 61.30247276 61.8049417 62.30744651 62.80994768 
63.312407038 63.814866396 
ParallelTransportNormals 3 128 double
0.43362390334 0 0.90109395207 0.40257400757 0.0046995912622 0.91468351674 0.3715241118 0.0093991825244 0.92827308141 
0.3558187236 0.011510250593 0.93436266742 0.34147275149 0.013391993604 0.93978780775 0.33704100013 0.013743974123 0.94137946048 
0.33296549698 0.014040985606 0.9428333643 0.33754620055 0.014164933098 0.94118654865 0.34264180388 0.014278586173 0.93935529196 
0.35321235206 0.015864404135 0.93533185159 0.36423529445 0.017571866952 0.93112727129 0.37414585265 0.020566607203 0.9270754961 
0.38394005894 0.023695992659 0.92303970385 0.38533499265 0.024193243088 0.92245947187 0.38566136072 0.024355630111 0.92231886046 
0.3722045187 0.015483775799 0.92781359134 0.35666803931 0.0052488176987 0.93415859356 0.32301397513 -0.020634920969 0.94495480304 
0.28617096643 -0.049273060618 0.95653448633 0.22668133459 -0.099691523696 0.96519170053 0.16260708728 -0.15451922728 0.97325728583 
0.073750777198 -0.23675802005 0.96008674884 -0.020791111126 -0.3252855505 0.94204415434 -0.1187078641 -0.432824138 0.87825656029 
-0.21748673723 -0.54521916192 0.80278325717 -0.27468617364 -0.64252538308 0.69970537042 -0.3203282042 -0.73563752585 0.58895452315 
-0.32728781229 -0.79402490373 0.50452841377 -0.32281551749 -0.84214999415 0.42788211308 -0.31417077097 -0.86527038709 0.38938352907 
-0.30420899528 -0.88049807856 0.36292622411 -0.30397942024 -0.88197447783 0.36009942199 -0.30709835578 -0.87871953739 0.3654030512 
-0.32226822043 -0.86309502296 0.38696004641 -0.34199488506 -0.84279321985 0.41466290282 -0.37747527084 -0.79797621479 0.46200763124 
-0.41949131581 -0.74298872345 0.51750107449 -0.48465294008 -0.56102374533 0.6163548864 -0.56030110726 -0.32152921275 0.73485393427 
-0.46024788713 0.12134917216 0.68320198685 -0.27453583388 0.6633822862 0.54859716164 -0.085971269496 0.88750364831 0.34907023664 
0.10391683382 0.96411688189 0.11942005454 0.20061164912 0.97341314822 -0.014359640722 0.26014817809 0.9558686066 -0.10991358951 
0.29516811293 0.93668139023 -0.17783655557 0.31995376001 0.91680845029 -0.23422515322 0.33264806673 0.90247600726 -0.27189745723 
0.33985393942 0.8906584758 -0.30107416522 0.34219910551 0.88706848017 -0.30985094935 0.34214845942 0.887533786 -0.30857273734 
0.34785712281 0.89446372036 -0.27702237716 0.35663742931 0.90484146939 -0.22932681144 0.38908048604 0.90329450792 -0.14262046164 
0.43509023424 0.89491068825 -0.033547849847 0.50407385611 0.84530250263 0.085142099742 0.58701494072 0.77064901731 0.20967493137 
0.65869790049 0.67616367101 0.30184815557 0.72327479412 0.56916056375 0.37359617454 0.76808648914 0.47518994179 0.42004528571 
0.7997932438 0.38986026224 0.44972043552 0.82063357129 0.3222514308 0.46894859275 0.83376667056 0.2672114611 0.48076701402 
0.84199533052 0.2279854874 0.48829177374 0.84647613741 0.2008441843 0.49253542188 0.84849027164 0.1886541422 0.49444297672 
0.84847022829 0.18879387541 0.49442403817 0.84574766944 0.20411125623 0.49230121162 0.84061642692 0.23295609026 0.48830324295 
0.82968907369 0.2772287016 0.48144758269 0.81318502074 0.3363450738 0.47184240838 0.78539309094 0.4080882703 0.45805015786 
0.74588932288 0.49293254204 0.43991356871 0.69072066643 0.58189898734 0.41644224142 0.61808462428 0.67546192858 0.38702232855 
0.53201763476 0.76148013755 0.35257458631 0.42992202506 0.83849439135 0.31212658474 0.3233834489 0.90085438713 0.26892858954 
0.21118741874 0.94455437474 0.22222888833 0.10305614488 0.97463099347 0.17547852944 0.00044546009144 0.98620489861 0.12865936932 
-0.094164920826 0.98913189285 0.083589108992 -0.17714284746 0.97948626521 0.041061751692 -0.25124373727 0.96620961828 0.0014472586346 
-0.31147532625 0.94725994108 -0.033616234888 -0.36343088767 0.92856349076 -0.064925442088 -0.40143709008 0.91029385788 -0.08990674772 
-0.43234498605 0.89469872845 -0.1106177258 -0.45029331711 0.88398651041 -0.12353225444 -0.4621261571 0.87692860216 -0.13204368673 
-0.46181629786 0.87712656008 -0.13181248917 -0.45578240322 0.88073048502 -0.12740024558 -0.43734280731 0.8917161619 -0.11392642142 
-0.41297544791 0.90489857086 -0.096536201031 -0.37455512961 0.92328877628 -0.069861373481 -0.32953505569 0.94180671567 -0.038972508962 
-0.26734940714 0.96065688353 0.0028768168759 -0.19765797336 0.97604457863 0.050634229879 -0.10651375201 0.98153594836 0.11527794258 
-0.010677292247 0.97711804072 0.18783441311 0.099890335558 0.94159019844 0.28523279383 0.20328853291 0.89391752895 0.38580835311 
0.28215939325 0.80469619369 0.49725335726 0.34825185774 0.71442669057 0.6018916036 0.36782218201 0.62034113629 0.6817485749 
0.38188450259 0.53179177826 0.75429756231 0.3744732162 0.4648259392 0.79835550601 0.36620152111 0.40183527042 0.83871728571 
0.3542173077 0.35599679026 0.86313074176 0.34252540477 0.31225264358 0.88584607879 0.33226126409 0.27873806593 0.90026711795 
0.32249627707 0.24647437569 0.91380106297 0.31553476353 0.22123623667 0.92235268478 0.30905582194 0.19711553197 0.93035066185 
0.30574777189 0.18033728262 0.93471074116 0.3027496831 0.16481948086 0.93870648355 0.30217340144 0.15914988028 0.93985556794 
0.30166822101 0.15476397322 0.94076178683 0.30184159883 0.16262906187 0.93935020628 0.30197627136 0.17155239472 0.93771376539 
0.30164019586 0.1933464838 0.93334249002 0.30132423835 0.21571228614 0.9287364079 0.30134927788 0.24776853876 0.92015038816 
0.30150329941 0.28032235651 0.91123510427 0.30527256856 0.32682247083 0.89309084683 0.30874005225 0.36959956681 0.87639930417 
0.30874005225 0.36959956681 0.87639930417 0.30874005225 0.36959956681 0.87639930417 
FrenetTangent 3 128 double
-0.92096841519 0.094812215395 0.37792568323 -0.92096841519 0.094812215395 0.37792568323 -0.92250823051 0.086345518343 0.37619544934 
-0.92470461966 0.072479709781 0.37372189934 -0.92716965069 0.053068032496 0.37086415675 -0.92942149202 0.028001096691 0.3679560147 
-0.93092272245 -0.0027240933307 0.36520605711 -0.93112554188 -0.038935453748 0.36261447255 -0.92952763307 -0.080228865288 0.35991903053 
-0.92573781729 -0.12593784811 0.35657979761 -0.91954464654 -0.17514426105 0.35179842358 -0.91096731585 -0.22673844737 0.34456962421 
-0.9002651371 -0.27952534421 0.33374880504 -0.88788503721 -0.33235619403 0.31811872153 -0.87434296885 -0.38425117352 0.29643786612 
-0.86005022187 -0.4344810149 0.26746936936 -0.84511295794 -0.48258264201 0.22999583029 -0.82913893273 -0.52829877218 0.18283609476 
-0.8110707964 -0.57145659504 0.12490605755 -0.78907611207 -0.61179663037 0.055351354294 -0.76052991028 -0.64877411308 -0.026199346498 
-0.72215748052 -0.68137678563 -0.11922352671 -0.67045712897 -0.70803103185 -0.22176405515 -0.60250712882 -0.72673448475 -0.3299123344 
-0.51712768672 -0.73554695625 -0.43766383306 -0.4160203103 -0.7334272524 -0.53759796025 -0.30413926203 -0.72109189747 -0.62251569032 
-0.188770837 -0.70131569727 -0.68740225768 -0.077635124583 -0.6783790404 -0.73059883998 0.022948212121 -0.65698882748 -0.75355096718 
0.10891238295 -0.641307009 -0.75951524873 0.17828852191 -0.6344899858 -0.75208753538 0.23051650191 -0.63870788464 -0.73410788066 
0.26563338105 -0.65541871331 -0.70701146887 0.2835461897 -0.68569074921 -0.6703952228 0.28335364147 -0.73040731822 -0.62146268058 
0.26252410985 -0.79008584504 -0.55393632234 0.21576748693 -0.86343954611 -0.45597866375 0.1340002338 -0.94210396106 -0.3073826018 
0.0071375603289 -0.99661882815 -0.081853323719 -0.15727258696 -0.9620428938 0.22302198071 -0.30743504298 -0.78982889257 0.53071085802 
-0.38970110755 -0.54398891429 0.74310773641 -0.40793291504 -0.32053283568 0.85489732604 -0.38908416836 -0.15145335299 0.90866682111 
-0.35088359766 -0.03147106947 0.93589009648 -0.30148104815 0.050309804105 0.95214394984 -0.24436325029 0.10181287977 0.96432398053 
-0.18113463439 0.12758406348 0.97514745089 -0.11277882827 0.12978823819 0.98510707495 -0.040301969702 0.10914171058 0.99320885933 
0.034855525335 0.065721659097 0.99722903883 0.11048771035 -0.00020523209556 0.99387746918 0.18337071271 -0.08723432585 0.97916564182 
0.24932543345 -0.19186033094 0.94922412614 0.30378068868 -0.307945241 0.90160247434 0.34289598135 -0.42720453257 0.83661139923 
0.36483022857 -0.54088014905 0.75785722183 0.370373904 -0.64190209178 0.67140515026 0.36258369912 -0.72629574841 0.58397563903 
0.34574945838 -0.79321353302 0.50126799526 0.32432028579 -0.8440262658 0.42712529176 0.30224489897 -0.88118147038 0.3635481224 
0.28273914047 -0.90732830595 0.31114935909 0.26829517174 -0.92482560736 0.2696577401 0.26080310674 -0.93550840026 0.23833961599 
0.26165630166 -0.94061704634 0.21627656354 0.27183161092 -0.94079185626 0.20252964846 0.29192568905 -0.9360945063 0.19623064836 
0.32213746726 -0.92605191473 0.19660952016 0.36222353383 -0.90971985144 0.2029874465 0.41141968382 -0.88578881092 0.21473710954 
0.4683444695 -0.85275429819 0.23122189518 0.53094098308 -0.80915348099 0.25173858799 0.59648421189 -0.75387486426 0.27546192841 
0.66171623137 -0.68649810108 0.30141663251 0.72314327137 -0.60757257608 0.32851084283 0.77745415582 -0.51875116639 0.35561533005 
0.82198104627 -0.42268961676 0.38168134282 0.85506019298 -0.32273158849 0.40585266806 0.87619603108 -0.22245402265 0.42754499522 
0.88599483025 -0.12522343806 0.44646640561 0.88592947156 -0.033886075149 0.46258048524 0.8780306407 0.049402095658 0.47604792503 
0.86457679886 0.12319000256 0.48716648298 0.84784806583 0.18662185404 0.49631234203 0.82995039132 0.23929666783 0.50390420986 
0.8126948121 0.28112055926 0.51039041287 0.79752030425 0.31216763351 0.51624871225 0.78545336783 0.33255629844 0.52198593403 
0.77708035586 0.34235083339 0.52814962598 0.77252827722 0.3415063711 0.53532556393 0.77145535706 0.32982420551 0.54412556044 
0.77303520915 0.30693237735 0.5551658141 0.77594402784 0.27230526718 0.56899974264 0.77833836202 0.22529762895 0.58602932743 
0.77782801765 0.16524317476 0.60636479792 0.7714721492 0.091644039933 0.62962853569 0.75584464314 0.00448009454 0.65473567505 
0.72729394946 -0.095299780024 0.67967746984 0.68253189349 -0.20518564727 0.70146209058 0.61961440334 -0.32066248745 0.7164171692 
0.53910178988 -0.435374171 0.72098445987 0.44474057628 -0.5422539241 0.71285798138 0.34299368221 -0.63535527957 0.69186631851 
0.24140522431 -0.71142801192 0.65999522841 0.14668525695 -0.77032612002 0.62054903449 0.063519686661 -0.81423799418 0.57704569857 
-0.0056188659734 -0.84645550004 0.53242982147 -0.060022960314 -0.8703342171 0.4887899291 -0.10014446129 -0.88868806089 0.44744230611 
-0.12710805557 -0.90356770932 0.40915637215 -0.14241803101 -0.91627008028 0.37438782624 -0.14781405482 -0.92745694263 0.34347434367 
-0.14520194829 -0.93733634972 0.31672852999 -0.13660324836 -0.94584753918 0.29446898846 -0.12408435903 -0.95281605259 0.27702823282 
-0.10964386916 -0.95808507634 0.26467188828 -0.09507805077 -0.96159075708 0.25749442744 -0.081842670513 -0.96338042544 0.25534277581 
-0.070944477825 -0.96360485984 0.25774513604 -0.062887347903 -0.96250547628 0.26387191895 -0.057682704218 -0.96040990013 0.27255371833 
-0.054925949004 -0.95772481914 0.28239389323 -0.053935253186 -0.95492416375 0.2919089412 -0.053929092489 -0.95250759875 0.29970139689 
-0.054212144766 -0.95091564256 0.30466454354 -0.054212144766 -0.95091564256 0.30466454354 
FrenetNormal 3 128 double
-0.18533032577 -0.95979022804 -0.21084446523 -0.18533032577 -0.95979022804 -0.21084446523 -0.1682692095 -0.96712830877 -0.19065232103 
-0.14229258472 -0.97635783908 -0.16272120452 -0.10902872569 -0.98529069358 -0.13158642074 -0.07033011865 -0.99228122005 -0.10213547251 
-0.028046031368 -0.99648610527 -0.078923140697 0.016136126354 -0.99770935433 -0.065693756946 0.06067312695 -0.99601772196 -0.065325869324 
0.10407143726 -0.99135177851 -0.079942399235 0.14462007624 -0.98318835389 -0.1114705985 0.18040099372 -0.97024207753 -0.161510967 
0.20921837013 -0.95009906993 -0.23138589179 0.2290577323 -0.91901872454 -0.32083818229 0.23877797313 -0.87238408987 -0.42653379619 
0.23969025357 -0.80685438674 -0.5399394234 0.23655595115 -0.72340093237 -0.64863886179 0.23712620262 -0.62852427838 -0.74076203704 
0.24949881914 -0.53110362429 -0.80974025435 0.27926480083 -0.43751869286 -0.85474473641 0.328566921 -0.34973526025 -0.87734202348 
0.39640147473 -0.26639768944 -0.87857733973 0.47915177324 -0.18498219637 -0.85801816136 0.57112312361 -0.10384573736 -0.81426926781 
0.66504521468 -0.023418394809 -0.74643582525 0.75326933045 0.053241791236 -0.65555368009 0.82956858781 0.12076742233 -0.54518913033 
0.89064797648 0.17258745054 -0.42066584591 0.93665683244 0.20140965805 -0.28654515854 0.96963202632 0.19820496018 -0.14327779762 
0.9887683164 0.14855957795 0.016348341865 0.97735248634 0.02563960707 0.21005886791 0.86882833195 -0.20462278318 0.45085124619 
0.55884271871 -0.49289732153 0.66689357935 0.15718482689 -0.65639906025 0.73785717039 -0.13018161528 -0.67131822813 0.72964688968 
-0.30049712906 -0.61246603836 0.73115444831 -0.40310513501 -0.50409425588 0.76380313649 -0.46463747601 -0.33370182619 0.82021650013 
-0.48616933152 -0.074988488289 0.87064120493 -0.444789891 0.27063466952 0.85376743234 -0.32396587101 0.6112811569 0.72206749105 
-0.156638379 0.83429528013 0.52859796044 0.01943821637 0.93308721252 0.35912450429 0.20173738534 0.9484402295 0.2444650454 
0.40264375108 0.89725669016 0.18113100696 0.62422870867 0.76525902434 0.1572168723 0.83482733395 0.52800484541 0.15580181551 
0.96717337662 0.20280572991 0.15311921978 0.98324590074 -0.12831479598 0.12947127793 0.91512699231 -0.39503838001 0.080543567555 
0.81076116317 -0.58528760671 0.010234926884 0.69579929072 -0.71404296818 -0.077498300767 0.57798074556 -0.79613880926 -0.17916822861 
0.45842566907 -0.84001831263 -0.29019844999 0.33693459291 -0.85044742284 -0.40399784786 0.21517117277 -0.83120750439 -0.51263578792 
0.096446744582 -0.78762758493 -0.60855633504 -0.014976098164 -0.72684195093 -0.68664146019 -0.11493371957 -0.65668106219 -0.74535912329 
-0.19966135553 -0.58417312938 -0.78668742078 -0.26606132862 -0.51469487809 -0.81504634953 -0.30948366766 -0.45143731051 -0.83691350457 
-0.32160141034 -0.39528035243 -0.86042197546 -0.28144873097 -0.34295902661 -0.89619513383 -0.12996145376 -0.27865905217 -0.95155617447 
0.28498972284 -0.13879559463 -0.94842851116 0.83067309432 0.12312450986 -0.54297565825 0.95538185008 0.27574630995 -0.10587489357 
0.93402276679 0.34476049171 0.093496922241 0.89834282676 0.39879994811 0.18422477301 0.8602789733 0.45522044978 0.22955267411 
0.81741863342 0.51752832688 0.25296483671 0.76662906951 0.58522681645 0.26417691626 0.70573471114 0.65608925215 0.26736755732 
0.63365547982 0.72695764674 0.26460028863 0.55052102523 0.79424803015 0.25709272137 0.45771768454 0.85445689411 0.24575991817 
0.35769009571 0.90467532848 0.23156067342 0.25365171744 0.94299335919 0.21546306125 0.14905539814 0.96869082087 0.19854617056 
0.047204640815 0.98220026453 0.18180858681 -0.049093280296 0.98487440183 0.16616937877 -0.13775132044 0.97865475822 0.15251045188 
-0.2175715569 0.96566906375 0.14193617207 -0.28816644286 0.94789515176 0.13584874856 -0.35029470744 0.926576072 0.13693210265 
-0.40645489232 0.90113020535 0.15086011238 -0.46297237671 0.86533659525 0.19196133811 -0.53560064499 0.78785590244 0.30399839814 
-0.62923568395 0.4418211873 0.63941887093 -0.25905439638 -0.60020215741 0.75673521786 0.024483995498 -0.86991657966 0.49259078188 
0.082217378969 -0.91624950514 0.39208053627 0.070544014047 -0.9338273113 0.35069943648 0.025804094428 -0.94408849499 0.32868079094 
-0.040256522308 -0.94973481608 0.31045642454 -0.12197258329 -0.94991764315 0.28771367739 -0.21561111019 -0.9424992966 0.25535646668 
-0.31727472191 -0.92482894331 0.20982892186 -0.42252498118 -0.89391256534 0.14964279401 -0.52557256894 -0.84741322053 0.075261600139 
-0.61971977841 -0.78475294308 -0.010498312639 -0.69841926723 -0.70823736171 -0.10300663401 -0.75678898974 -0.62322271043 -0.19713923561 
-0.79248135383 -0.53705471886 -0.28904244114 -0.80541796488 -0.45720846715 -0.37717677475 -0.79616012498 -0.38998405332 -0.46264618614 
-0.76398746797 -0.33990435855 -0.54844158835 -0.70497986548 -0.30970707956 -0.63803206356 -0.6108934596 -0.30004171607 -0.73265554638 
-0.4696954586 -0.3084906084 -0.82717574958 -0.2728999002 -0.32723409771 -0.90467866658 -0.029797302978 -0.34295540949 -0.93887896336 
0.22660297809 -0.34311773186 -0.91154885355 0.45931317996 -0.32384679781 -0.82713641817 0.65351138513 -0.28855777108 -0.69975515879 
0.81227390719 -0.23983585801 -0.53168586677 0.93716218359 -0.1736893626 -0.30258725513 0.99664215686 -0.078471287568 0.023380936634 
0.90272181499 0.047899099114 0.4275499983 0.63884176949 0.16430846553 0.75158760082 0.35964400809 0.23468756631 0.90309353539 
0.1585724911 0.27086471655 0.94946672948 0.032143701004 0.29052258898 0.95632808585 -0.041810807504 0.30202894143 0.95238142302 
-0.078944822052 0.30823985149 0.94802737778 -0.078944822052 0.30823985149 0.94802737778 
FrenetBinormal 3 128 double
0.34273874683 -0.26422218298 0.90150806399 0.34273874683 -0.26422218298 0.90150806399 0.3473672952 -0.2391804462 0.90671311691 
0.35309232038 -0.20364690456 0.91315592948 0.35842596978 -0.16243778216 0.91931756815 0.36225593795 -0.12080529342 0.9242168125 
0.36413775547 -0.083713925535 0.92757515799 0.36434166751 -0.055317942088 0.92962093059 0.36372675325 -0.03888478766 0.93069373172 
0.36356379027 -0.036895930142 0.93083836446 0.36540754858 -0.051625077262 0.92941496375 0.37093669394 -0.084970509472 0.92476266231 
0.38177265031 -0.13848227057 0.91382290637 0.39898961888 -0.21199986847 0.89211173056 0.42250378977 -0.30215399285 0.8545136115 
0.45040226265 -0.40026521993 0.79807615897 0.4794010537 -0.49376622473 0.72551329762 0.50626059916 -0.57083941594 0.64640743107 
0.52906946848 -0.6255927591 0.57334038518 0.54714720174 -0.65900096849 0.51608881325 0.56003395789 -0.67585308902 0.47914983886 
0.56688133163 -0.68173157992 0.4624798469 0.56648108214 -0.68152303333 0.46327695671 0.55749756717 -0.67902360158 0.47762266603 
0.53878921486 -0.67706886941 0.50128228377 0.50942361275 -0.67767970097 0.53031858883 0.46831107975 -0.68223288187 0.56146507236 
0.41365656419 -0.69164287366 0.59204592915 0.34153589221 -0.70656636432 0.61977189928 0.24348945171 -0.72737918195 0.64158585753 