# vtk DataFile Version 4.2
vtk output
ASCII
DATASET POLYDATA
POINTS 128 float
0 0 0 -0.21774 0.209714 0.149987 -0.655362 0.617601 0.425738 
-1.04922 0.951537 0.615665 -1.40972 1.21348 0.736281 -1.80973 1.4677 0.855595 
-2.24755 1.70323 0.977248 -2.70318 1.89089 1.08985 -3.17311 2.01955 1.20005 
-3.65663 2.08315 1.31934 -4.14076 2.07317 1.45556 -4.60909 1.98282 1.61448 
-5.04834 1.81952 1.79713 -5.44817 1.5959 2.00214 -5.80916 1.3261 2.22392 
-6.13649 1.02401 2.45512 -6.43903 0.698417 2.68686 -6.72764 0.354873 2.90804 
-7.01668 -0.00983607 3.0962 -7.31859 -0.399955 3.22181 -7.62124 -0.800863 3.23794 
-7.90166 -1.19035 3.0991 -8.13707 -1.55199 2.82902 -8.30777 -1.87494 2.48081 
-8.4171 -2.17089 2.09077 -8.4782 -2.46075 1.6858 -8.49723 -2.75559 1.28052 
-8.47678 -3.06136 0.883378 -8.41879 -3.38166 0.501695 -8.32465 -3.71839 0.141883 
-8.19429 -4.06865 -0.192856 -8.02685 -4.42641 -0.501773 -7.82181 -4.78121 -0.791074 
-7.57928 -5.12014 -1.07103 -7.30449 -5.4323 -1.35155 -7.0057 -5.70883 -1.64191 
-6.68956 -5.95058 -1.947 -6.36176 -6.16479 -2.26773 -6.02994 -6.35817 -2.59123 
-5.7013 -6.53754 -2.8975 -5.35557 -6.71779 -3.20497 -4.95659 -6.91867 -3.54963 
-4.54635 -7.13998 -3.78052 -4.22851 -7.36316 -3.61545 -4.07946 -7.53303 -3.11496 
-4.13731 -7.57732 -2.59883 -4.33555 -7.52469 -2.14073 -4.57102 -7.44267 -1.70249 
-4.82452 -7.33862 -1.28386 -5.11345 -7.19299 -0.901609 -5.43096 -6.99806 -0.563386 
-5.75794 -6.75231 -0.271213 -6.07448 -6.45641 -0.0176855 -6.36015 -6.11325 0.211312 
-6.59313 -5.73592 0.446899 -6.7513 -5.34548 0.727949 -6.81728 -4.98592 1.07607 
-6.77861 -4.71335 1.49924 -6.64509 -4.56979 1.96925 -6.44049 -4.58591 2.43581 
-6.19533 -4.76304 2.84508 -5.94349 -5.08278 3.14445 -5.71289 -5.50276 3.31512 
-5.52611 -5.96879 3.36055 -5.38685 -6.45004 3.30823 -5.28773 -6.93077 3.19874 
-5.2218 -7.40818 3.06155 -5.18253 -7.88728 2.91923 -5.16418 -8.37254 2.79451 
-5.16136 -8.86744 2.70984 -5.16724 -9.36882 2.68192 -5.17387 -9.86885 2.7225 
-5.1729 -10.3595 2.83113 -5.15557 -10.8327 2.99841 -5.11217 -11.2831 3.21553 
-5.03203 -11.707 3.47436 -4.90071 -12.0935 3.76756 -4.70137 -12.4265 4.08797 
-4.42952 -12.6904 4.42079 -4.09187 -12.872 4.74498 -3.70311 -12.975 5.04749 
-3.28444 -13.0186 5.32301 -2.84974 -13.0204 5.57283 -2.40572 -12.9963 5.80425 
-1.95702 -12.9572 6.02409 -1.5065 -12.9092 6.23844 -1.05659 -12.8555 6.45256 
-0.609325 -12.7962 6.67077 -0.166315 -12.73 6.89561 0.271304 -12.6538 7.12768 
0.703379 -12.5667 7.36629 1.13094 -12.4706 7.60942 1.55566 -12.37 7.85567 
1.97995 -12.2739 8.10462 2.40524 -12.1925 8.35712 2.83155 -12.1387 8.61574 
3.25552 -12.1262 8.88391 3.66889 -12.1703 9.16602 4.05812 -12.2833 9.46447 
4.40207 -12.4723 9.77826 4.68308 -12.736 10.1026 4.8903 -13.0602 10.427 
5.02067 -13.4297 10.7419 5.08331 -13.8295 11.0404 5.08889 -14.2478 11.3177 
5.04867 -14.6785 11.5719 4.9731 -15.1177 11.8019 4.87092 -15.5637 12.0074 
4.75008 -16.0155 12.1881 4.61732 -16.473 12.3442 4.47872 -16.9361 12.477 
4.3392 -17.4043 12.5892 4.20284 -17.8769 12.6849 4.07205 -18.3533 12.77 
3.9486 -18.8324 12.8498 3.8333 -19.3137 12.9285 3.7261 -19.7966 13.0084 
3.62511 -20.2811 13.0885 3.528 -20.767 13.1666 3.43202 -21.2528 13.2391 
3.33217 -21.7382 13.3002 3.21672 -22.2274 13.3373 3.07829 -22.7184 13.3412 
2.92823 -23.1853 13.318 2.76236 -23.6176 13.2603 2.50858 -24.077 13.1012 
2.15692 -24.5624 12.8298 1.96843 -24.7988 12.6763 
LINES 1 129
128 0 1 2 3 4 5 6 7 8 9 10 11 12 13 14 15 16 17 18 19 20 21 22 23 24 25 26 27 28 29 30 31 32 33 34 35 36 37 38 39 40 41 42 43 44 45 46 47 48 49 50 51 52 53 54 55 56 57 58 59 60 61 62 63 64 65 66 67 68 69 70 71 72 73 74 75 76 77 78 79 80 81 82 83 84 85 86 87 88 89 90 91 92 93 94 95 96 97 98 99 100 101 102 103 104 105 106 107 108 109 110 111 112 113 114 115 116 117 118 119 120 121 122 123 124 125 126 127 

CELL_DATA 1
FIELD FieldData 2
Length 1 1 double
53.493175071 
Tortuosity 1 1 double
0.91592333576 
POINT_DATA 128
SCALARS MaximumInscribedSphereRadius float
LOOKUP_TABLE default
1.3144 1.28594 1.25748 1.25776 1.25942 1.23139 1.20182 1.11784 1.02978 
1.30075 1.60766 1.50416 1.35001 1.17898 1.00548 0.993854 1.01061 1.14162 
1.2965 1.22457 1.09746 1.00491 0.92137 1.0341 1.19968 1.32323 1.43403 
1.38563 1.28254 1.2489 1.24206 1.30826 1.40591 1.44277 1.45052 1.40291 
1.32596 1.38739 1.53001 1.52394 1.4212 1.39882 1.43403 1.42692 1.38718 
1.3314 1.27143 1.3097 1.37509 1.47752 1.59151 1.67892 1.75708 1.63175 
1.42776 1.39788 1.4423 1.48856 1.53564 1.48896 1.40111 1.37744 1.38153 
1.41208 1.45408 1.39711 1.29391 1.2241 1.17162 1.22122 1.32961 1.45341 
1.5869 1.6208 1.58653 1.63435 1.74351 1.75779 1.69552 1.6356 1.57769 
1.53443 1.50458 1.44721 1.36218 1.35285 1.42733 1.49864 1.56608 1.62749 
1.68073 1.73727 1.79873 1.81488 1.7561 1.69883 1.64434 1.63482 1.71633 
1.82766 2.00446 2.0552 1.80849 1.61945 1.5796 1.5374 1.48844 1.44016 
1.39411 1.37857 1.47758 1.55828 1.55902 1.58138 1.71578 1.85467 2.02176 
2.16983 2.16834 2.14753 1.92752 1.71123 1.5491 1.39458 1.4043 1.42289 
1.64144 1.86 
TEXTURE_COORDINATES TCoords 2 float
0 0 0.00787402 0 0.015748 0 0.023622 0 0.0314961 
0 0.0393701 0 0.0472441 0 0.0551181 0 0.0629921 0 
0.0708661 0 0.0787402 0 0.0866142 0 0.0944882 0 0.102362 
0 0.110236 0 0.11811 0 0.125984 0 0.133858 0 
0.141732 0 0.149606 0 0.15748 0 0.165354 0 0.173228 
0 0.181102 0 0.188976 0 0.19685 0 0.204724 0 
0.212598 0 0.220472 0 0.228346 0 0.23622 0 0.244094 
0 0.251969 0 0.259843 0 0.267717 0 0.275591 0 
0.283465 0 0.291339 0 0.299213 0 0.307087 0 0.314961 
0 0.322835 0 0.330709 0 0.338583 0 0.346457 0 
0.354331 0 0.362205 0 0.370079 0 0.377953 0 0.385827 
0 0.393701 0 0.401575 0 0.409449 0 0.417323 0 
0.425197 0 0.433071 0 0.440945 0 0.448819 0 0.456693 
0 0.464567 0 0.472441 0 0.480315 0 0.488189 0 
0.496063 0 0.503937 0 0.511811 0 0.519685 0 0.527559 
0 0.535433 0 0.543307 0 0.551181 0 0.559055 0 
0.566929 0 0.574803 0 0.582677 0 0.590551 0 0.598425 
0 0.606299 0 0.614173 0 0.622047 0 0.629921 0 
0.637795 0 0.645669 0 0.653543 0 0.661417 0 0.669291 
0 0.677165 0 0.685039 0 0.692913 0 0.700787 0 
0.708661 0 0.716535 0 0.724409 0 0.732283 0 0.740157 
0 0.748031 0 0.755906 0 0.76378 0 0.771654 0 
0.779528 0 0.787402 0 0.795276 0 0.80315 0 0.811024 
0 0.818898 0 0.826772 0 0.834646 0 0.84252 0 
0.850394 0 0.858268 0 0.866142 0 0.874016 0 0.88189 
0 0.889764 0 0.897638 0 0.905512 0 0.913386 0 
0.92126 0 0.929134 0 0.937008 0 0.944882 0 0.952756 
0 0.96063 0 0.968504 0 0.976378 0 0.984252 0 
0.992126 0 1 0 
FIELD FieldData 7
Curvature 1 128 double
0 0.032400942698 0.061434560053 0.090341583573 0.11910229083 0.14750807594 0.17492148335 0.20008278671 0.22111313371 
0.23592055545 0.24302137115 0.2424617437 0.23633658469 0.22864522718 0.22448661529 0.22867069447 0.24392511452 0.26936429601 
0.30019386123 0.32853837922 0.34566957938 0.3455807 0.32808284989 0.29867899909 0.26515036324 0.23391727326 0.20837194508 
0.18897886858 0.17445022207 0.16297754233 0.15310155207 0.1440513775 0.13572737237 0.12862346413 0.12394887008 0.12424751294 
0.13428194779 0.16235961843 0.22285120563 0.34456514619 0.59460683248 1.127655577 2.1516145572 3.1169655155 2.5627259812 
1.4351532327 0.7628293481 0.43522240673 0.26600748082 0.16785423788 0.10671304168 0.07955264054 0.09964805665 0.15697490731 
0.24312217745 0.36445908527 0.5313798796 0.74200263414 0.95043827026 1.0540019005 0.97963999406 0.78108864232 0.56524325692 
0.38882100567 0.25851119687 0.16369351012 0.093719094553 0.046045772917 0.044016878773 0.077854485496 0.11630780422 0.15454505517 
0.19179170174 0.22722064715 0.25914664684 0.28481442104 0.30079216101 0.30415576502 0.29389373737 0.27166526152 0.24118792142 
0.20676861966 0.17204999184 0.1393492417 0.10971504674 0.083313497818 0.059744225729 0.038417770776 0.019481834279 0.013259970252 
0.030504756467 0.053628215233 0.080016893369 0.10972477187 0.14275390244 0.17863996007 0.21596880124 0.25205413541 0.28294775706 
0.30419787991 0.31225482655 0.30611536828 0.28766133206 0.26079580527 0.22984655633 0.19830143637 0.16849372592 0.14163582843 
0.1182524413 0.098523991519 0.08246719234 0.070007028805 0.061056553295 0.055400887464 0.052865879685 0.053381183314 0.056972455538 
0.063461728514 0.072108582103 0.081482959028 0.089608837993 0.094263428891 0.093397710329 0.085671869501 0.0708008054 0.049764678432 
0.02436008232 0 
Torsion 1 128 double
0 0 0.071693656335 0.091601110645 0.10562489431 0.11139375635 0.10739238153 0.092848777347 0.067324898831 
0.03018404151 -0.019776961401 -0.084343048502 -0.16379358512 -0.25163748974 -0.3278825586 -0.3614271399 -0.33443773466 -0.26199555062 
-0.17371489711 -0.089372594203 -0.014716542224 0.051832616201 0.11301735457 0.16909872923 0.2154488887 0.24304020473 0.24288169932 
0.21339565923 0.1639850286 0.11007423447 0.066582604922 0.045628460738 0.056815708413 0.10785118668 0.20232106342 0.32990280087 
0.44911176779 0.49732407583 0.45682280971 0.36746996342 0.26445470837 0.15479450609 0.053214044984 -0.012368617321 -0.075609395132 
-0.17674057736 -0.28412628583 -0.3816207445 -0.50902544624 -0.75925774082 -1.3542526429 -2.1695649713 -1.5289523388 -0.82964818295 
-0.54482622009 -0.42417049597 -0.36363883702 -0.324175315 -0.29321570309 -0.27175722055 -0.26190054583 -0.25969010062 -0.26173239632 
-0.2739476412 -0.31396550526 -0.42758328069 -0.79499195283 -2.3283400983 -2.1878229524 -0.74013143151 -0.41019774658 -0.30801595734 
-0.26513323215 -0.23996399643 -0.21864852526 -0.19647443506 -0.17268033733 -0.14789632712 -0.12273034954 -0.09752749836 -0.072177358209 
-0.045962967011 -0.018041028161 0.012926296216 0.049495563484 0.09794872749 0.17931410509 0.3861742358 1.3861698397 3.0283373984 
0.62861513549 0.22873100607 0.11105196265 0.058253987411 0.029126390883 0.01192128481 0.0023738081073 -0.0014707021985 -0.00076332158227 
0.0039157159095 0.012227889826 0.023885847076 0.03856571996 0.05602463713 0.075977505268 0.098072573631 0.12192069582 0.14687771069 
0.17237379262 0.19606980656 0.21222319862 0.21122814651 0.17926344138 0.1093013546 0.012714555797 -0.080167409821 -0.13679595181 
-0.1487044906 -0.13074926867 -0.10282973447 -0.076442512138 -0.055279914536 -0.039313073996 -0.027468747704 -0.018735461098 -0.011946417625 
0 0 
Abscissas 1 128 double
0 0.50115296828 1.0023059366 1.5034586974 2.0046114484 2.5057618104 3.0069120472 3.5080680833 4.0092245551 
4.510375637 5.0115261795 5.5126783925 6.0138308116 6.5149839981 7.0161372972 7.5172897755 8.0184421099 8.5195949662 
9.0207479314 9.5219001463 10.023052179 10.524206734 11.025361947 11.526514425 12.027666166 12.528817331 13.029968322 
13.531121556 14.032275561 14.533428809 15.034581765 15.535733059 16.036883638 16.538036392 17.039190188 17.540342534 
18.041494112 18.54264749 19.043801924 19.544954325 20.046105403 20.547258062 21.048411853 21.549565808 22.050719888 
22.55187422 23.053028618 23.554177887 24.05532574 24.556478599 25.05763302 25.558785329 26.059936904 26.561091564 
27.062247416 27.563401378 28.064554533 28.565707417 29.066860179 29.568013005 30.06916586 30.570320209 31.071475204 
31.572627482 32.073778586 32.574930322 33.076082353 33.577234736 34.078387301 34.579538224 35.080688203 35.581835188 
36.082980292 36.584139868 37.085309353 37.586456551 38.087587103 38.588741137 39.089914118 39.59107207 40.092217214 
40.593367035 41.094521139 41.595674489 42.096827081 42.597978542 43.099128752 43.600281751 44.101438158 44.602592885 
45.103745347 45.604896557 46.106045899 46.607196519 47.10834925 47.609501535 48.110652999 48.611806245 49.112963096 
49.614127381 50.115307973 50.616463054 51.117557936 51.618680568 52.119874974 52.621051688 53.122177335 53.623313597 
54.124484605 54.625652959 55.126811344 55.627963514 56.129088525 56.630220606 57.131389321 57.632556422 58.13371338 
58.634870757 59.13603142 59.637188836 60.138312758 60.639439797 61.140612146 61.641784143 62.142948533 62.644111384 
63.145239483 63.646367583 
ParallelTransportNormals 3 128 double
0.5433418671 0 0.83951153384 0.49049450801 0.04531995097 0.86689649563 0.43764714893 0.09063990194 0.89428145742 
0.39518346783 0.11976238821 0.90923615708 0.35321553797 0.14811155378 0.92359739478 0.32006656558 0.16345458204 0.93244876873 
0.28737957519 0.17811628244 0.94101150789 0.27403585832 0.18115661316 0.94442000165 0.26214553072 0.18332375278 0.94744122253 
0.28011331549 0.18588750614 0.94153374845 0.30106924607 0.18849095188 0.93473270675 0.33288030405 0.20266001003 0.92006880796 
0.36603128757 0.21825669396 0.90443434081 0.38435570903 0.2319590334 0.89325965449 0.40050531528 0.24538350337 0.88273914538 
0.38745768894 0.22999009596 0.89222548081 0.36929263583 0.20954575174 0.90521843492 0.29258714156 0.11201230754 0.93803026723 
0.20365744951 -0.0016185965884 0.97498060418 0.060574860798 -0.19906799015 0.94037391612 -0.095684755178 -0.41691294128 0.8883552533 
-0.18174206321 -0.55854035077 0.79039781548 -0.24947548919 -0.6802738097 0.68044965087 -0.27008016008 -0.72990206138 0.62596507113 
-0.27799773361 -0.76011953546 0.58641133135 -0.27994662003 -0.76381183516 0.58152600013 -0.28008440667 -0.75945550765 0.58716022638 
-0.2837740639 -0.74422800141 0.60400682293 -0.28868373255 -0.7252664171 0.62470469146 -0.29300180673 -0.71353084236 0.6362952078 
-0.29709161708 -0.70458338836 0.64437169647 -0.28532409905 -0.72055898219 0.63080951044 -0.26673025385 -0.74726355097 0.60793221975 
-0.23071411247 -0.78492401004 0.57043325711 -0.18635391016 -0.82783157405 0.52593153659 -0.14806839594 -0.85848288383 0.4882883276 
-0.1130049235 -0.88263342144 0.45428290386 -0.0957653554 -0.89394713186 0.43772063246 -0.088982828557 -0.89772965105 0.43139202034 
-0.11865458835 -0.88189236086 0.45149099403 -0.17202209407 -0.8533019472 0.48876823172 -0.40012061318 -0.70028620392 0.42489328447 
-0.75346930072 -0.45808026373 0.28851072705 -0.9115212399 -0.32461165456 0.064638188847 -0.91907025728 -0.27494006796 -0.22665737534 
-0.89420475257 -0.27258878624 -0.34585682033 -0.86086207197 -0.28261290056 -0.4200489976 -0.82733200332 -0.29802537188 -0.47248387155 
-0.7937501951 -0.31492561881 -0.5189113512 -0.77617271598 -0.3260763646 -0.53930492095 -0.76358743767 -0.33543367911 -0.55157778127 
-0.78980858892 -0.30353694321 -0.52854277777 -0.8295350898 -0.2572830407 -0.49321998971 -0.88407246645 -0.14693339687 -0.40729882789 
-0.94433456261 -0.011809381329 -0.30182031493 -0.95699681513 0.12141045631 -0.13121044886 -0.94934625032 0.25381770267 0.067193653019 
-0.8892863242 0.29823426943 0.27289673027 -0.80593784426 0.30355141528 0.48184317047 -0.7084664317 0.22194827082 0.63988965491 
-0.60479295551 0.10217421777 0.77558350396 -0.5329580973 -0.026752259742 0.83400062621 -0.4748874572 -0.1596354406 0.85901008853 
-0.44947154818 -0.23391502602 0.86073955919 -0.43817336959 -0.28285832065 0.85240431225 -0.43635782289 -0.28013030486 0.85463742051 
-0.43897366155 -0.25325546038 0.86180928997 -0.44095160154 -0.18328992753 0.87412759555 -0.44259835443 -0.090952376449 0.8891178511 
-0.44295154724 0.017142359584 0.88958974456 -0.44255996488 0.1343093918 0.88170260173 -0.4447031359 0.22975812804 0.86198894955 
-0.44844009235 0.31155097798 0.83483910315 -0.45480052375 0.36841458136 0.80965902917 -0.46295732735 0.40820837982 0.78582771763 
-0.47063940831 0.43211162067 0.76909392811 -0.47796691597 0.44414610473 0.75766132216 -0.47907874036 0.44828400066 0.75465031229 
-0.47517497056 0.4460499372 0.75843490421 -0.4661197291 0.44402943764 0.7650864557 -0.45267429524 0.44219094173 0.77418129038 
-0.44104797994 0.4415134648 0.7813082022 -0.43108816624 0.44189960188 0.78663229221 -0.42688614943 0.44201195462 0.78891779088 
-0.42846617959 0.44184936993 0.78815190057 -0.43646806275 0.4407899961 0.78421162231 -0.45157901271 0.43873786612 0.77675725927 
-0.46930547953 0.43594135176 0.76765890633 -0.49022764791 0.43223533059 0.75655188692 -0.50735906048 0.42899023969 0.74727481102 
-0.51937645529 0.42636697879 0.74046646802 -0.52497775415 0.42512635905 0.73732738697 -0.52100728467 0.42594841435 0.7396622461 
-0.51316275036 0.42696350911 0.7444398586 -0.49890976941 0.42829792817 0.75325825396 -0.48627795413 0.4286334813 0.76139539397 
-0.47662142855 0.42713583775 0.76828224104 -0.4719254615 0.42723203238 0.77118232207 -0.47726763777 0.43055350413 0.76601481782 
-0.48323339214 0.43673566287 0.75865480415 -0.49056726885 0.44919413207 0.746484453 -0.49605681157 0.46035358857 0.73617252614 
-0.49719446312 0.46844789421 0.73024573795 -0.49815423625 0.47289949343 0.72676841651 -0.49865392323 0.4679291576 0.72962669119 
-0.50014493525 0.45937640914 0.73391108837 -0.50449728026 0.44048348464 0.74231180581 -0.50980931074 0.41909966326 0.75100962457 
-0.51826269132 0.38956235873 0.76067994868 -0.52674706819 0.36002532391 0.7697663232 -0.53534783753 0.33048930183 0.77665993992 
-0.54325883843 0.30304411438 0.78288401668 -0.54815609444 0.28473422776 0.786182731 -0.55259228127 0.26797141165 0.78918195176 
-0.55463920383 0.2592255275 0.79062919434 -0.55663421856 0.25057856127 0.79205484841 -0.55830321222 0.24255287572 0.79334490991 
-0.56011418485 0.23385163334 0.79469528212 -0.56304109488 0.21984059662 0.79651968916 -0.56624899632 0.20498088532 0.79827498612 
-0.57235467921 0.18136904391 0.79931757135 -0.57885473454 0.1571943121 0.80004035639 -0.59108700705 0.12483794883 0.79611483453 
-0.60362468373 0.092480047193 0.79180043016 -0.62274679011 0.060088978989 0.77910182593 -0.64105729964 0.0290726803 0.76694218676 
-0.64105729964 0.0290726803 0.76694218676 -0.64105729964 0.0290726803 0.76694218676 
FrenetTangent 3 128 double
-0.79723634432 0.50343476753 0.33311806638 -0.79723634432 0.50343476753 0.33311806638 -0.80943208545 0.48444406041 0.33186390491 
-0.82784637451 0.45320804908 0.33056443315 -0.85064639591 0.40923319512 0.33004378669 -0.87542149064 0.35214324807 0.33110775673 
-0.89930155456 0.28196151213 0.33429690345 -0.91917127914 0.19943177561 0.33963381235 -0.93203522295 0.10630630637 0.34642360255 
-0.93553999357 0.0054658726963 0.3531784884 -0.92853527335 -0.0992898142 0.35772025235 -0.91141744373 -0.20383224869 0.35745021703 
-0.88601049041 -0.30449504131 0.34966867274 -0.85494655288 -0.39870945714 0.33180892168 -0.82077629205 -0.48518828723 0.30152712041 
-0.78514830748 -0.56359819834 0.25670840674 -0.74827746312 -0.63390127991 0.19557608625 -0.70879032318 -0.6956328673 0.11709479794 
-0.66401283543 -0.74740457358 0.021756786958 -0.61077525773 -0.78696457472 -0.087409053771 -0.54668977433 -0.81204275164 -0.20424705665 
-0.47140257366 -0.82175032106 -0.32016561867 -0.38698942106 -0.8176246573 -0.42629697132 -0.29711305888 -0.80340560206 -0.51600704338 
-0.20556782242 -0.78366167846 -0.58618789147 -0.11523274946 -0.76228198474 -0.63690469396 -0.02782098314 -0.74166172924 -0.67019689068 
0.055820983528 -0.72266283348 -0.68894299249 0.13528280683 -0.70502592186 -0.69615875466 0.21029018867 -0.68792561551 -0.69464838881 
0.28057689114 -0.67048509868 -0.68682336929 0.34589723424 -0.65216591131 -0.67456261938 0.40611723946 -0.63299974778 -0.65907519079 
0.46132460909 -0.61364910738 -0.64079199281 0.51190818155 -0.59532373534 -0.61930579184 0.55859311135 -0.57959550485 -0.59333193636 
0.60240551767 -0.56818139332 -0.56060458129 0.64455163123 -0.56275170584 -0.51755551611 0.68616692987 -0.56474816201 -0.45851331262 
0.72765985026 -0.575053386 -0.37393147175 0.76666120791 -0.59274545597 -0.24674565184 0.79094568 -0.61011452836 -0.046531640508 
0.75731561127 -0.59613895949 0.26662971684 0.57650723454 -0.47887033162 0.66205937348 0.25820590413 -0.24801554166 0.93371194818 
-0.020958113321 -0.0287904544 0.99936573246 -0.19824457744 0.12494172202 0.97215670219 -0.3025332861 0.2304600507 0.92485770572 
-0.36153658519 0.30695787946 0.88037955326 -0.39041741482 0.36472864642 0.84530897114 -0.39690013035 0.40817185489 0.82211071238 
-0.38494074172 0.43826849465 0.812244638 -0.35649111033 0.45373216414 0.81672590964 -0.31225803719 0.45132323802 0.83594392936 
-0.25203774876 0.42566616934 0.86907150769 -0.17503272764 0.36882815042 0.91286874178 -0.080702324006 0.27035861706 0.95937133222 
0.028862913464 0.11983069527 0.99237469572 0.1443679613 -0.084357320536 0.98592176882 0.24612114762 -0.32080102847 0.91460979703 
0.31218376586 -0.54495921219 0.77817784174 0.33520888592 -0.71861418686 0.60928536274 0.32510706091 -0.83361954936 0.44652418285 
0.29681845546 -0.90265595125 0.31162644011 0.26181202987 -0.94188854459 0.21047667467 0.22709546379 -0.96352641359 0.14157860236 
0.19676624302 -0.97519342223 0.10139445178 0.1734154517 -0.98105598904 0.086349449758 0.15896495012 -0.98287108038 0.093244753079 
0.15506444522 -0.98069799148 0.11910695756 0.16319957015 -0.97338595536 0.16089028006 0.18461147014 -0.95896045699 0.21520559245 
0.22005884136 -0.93498960913 0.27815200369 0.26947819732 -0.8989824081 0.34527109798 0.33161023003 -0.84886800455 0.4116524823 
0.40370005843 -0.78359037081 0.47224188039 0.48148032805 -0.70374913816 0.52241156595 0.55965649445 -0.61203022796 0.55875183068 
0.63290021934 -0.51306484676 0.57982909153 0.69699916458 -0.4125596439 0.58650379777 0.74962368866 -0.31602226801 0.58154471153 
0.79038075432 -0.22769958783 0.56872766848 0.82029686589 -0.15012722578 0.55188302011 0.84112289862 -0.08428549436 0.5342361134 
0.85476361139 -0.030087955361 0.51814465507 0.86294999492 0.013097407798 0.50511955433 0.86710980463 0.046029111999 0.4959857937 
0.86834879384 0.069309783532 0.49108708611 0.8674701037 0.083232537804 0.49047728168 0.86498319995 0.087734317214 0.49407160754 
0.86108190597 0.082408116632 0.50174381264 0.8555854458 0.066570412064 0.51336334616 0.84785482269 0.03937303189 0.52876456387 
0.83670655999 -5.6370083505e-05 0.54765146699 0.82036225989 -0.052405220363 0.56943784159 0.79648252514 -0.11789309653 0.59305716835 
0.76236528729 -0.19588932251 0.61678727456 0.71540406135 -0.28447516654 0.6381778033 0.6538263157 -0.38013301048 0.65422476507 
0.57755551831 -0.47784220241 0.66188855019 0.48882144711 -0.57179619415 0.65886470932 0.39204772891 -0.65665302992 0.64428671921 
0.2929061585 -0.72875887774 0.61896403808 0.19697857504 -0.78672975434 0.58502626831 0.10867716742 -0.83122137975 0.54521582069 
0.030799306771 -0.86418503526 0.50223065172 -0.035376982365 -0.88807523847 0.45833485568 -0.089733864361 -0.90527665502 0.41523729536 
-0.13292265696 -0.91779994467 0.37413210077 -0.16606432598 -0.92719174221 0.33576496663 -0.19055903159 -0.93455203601 0.30049916383 
-0.20796960881 -0.94060096471 0.26836256632 -0.21994904112 -0.94576628937 0.23905761899 -0.22820024833 -0.95025676713 0.21198283699 
-0.23441664338 -0.95412383208 0.18627010057 -0.24021338002 -0.95730084333 0.16084970444 -0.247046039 -0.95961439139 0.13456773184 
-0.25610009898 -0.96078380266 0.1063354308 -0.26817781396 -0.9604207446 0.075317019612 -0.2835758618 -0.95806705902 0.041136857307 
-0.30199896485 -0.95329953265 0.0040775345848 -0.32254760113 -0.9459134612 -0.034796105137 -0.34380926171 -0.93614714244 -0.073645904544 
-0.36407174997 -0.92484514385 -0.11006007797 -0.3816083985 -0.91344296062 -0.14141070642 -0.39495497619 -0.90370918833 -0.165288444 
-0.40307226469 -0.89732121856 -0.17985377439 -0.40307226469 -0.89732121856 -0.17985377439 
FrenetNormal 3 128 double
-0.55269486774 -0.83065475687 -0.067387373199 -0.55269486774 -0.83065475687 -0.067387373199 -0.52815701098 -0.84762161185 -0.050870176781 
-0.48836342488 -0.87221602607 -0.027209724584 -0.4333189491 -0.90124040017 0.00065532579033 -0.36358358396 -0.93111070434 0.028979884959 
-0.28060143145 -0.95833496307 0.053450306043 -0.18691181876 -0.97991161196 0.069550016258 -0.08618841134 -0.99359946125 0.073018274079 
0.016782179415 -0.99806324865 0.059900835916 0.11633350233 -0.99285964764 0.026386290349 0.2063329327 -0.97797222751 -0.031575989239 
0.28061965688 -0.95248986986 -0.11838773584 0.33367284705 -0.91248493752 -0.23671432136 0.3621912333 -0.85017868448 -0.38211740994 
0.36884090859 -0.75852305953 -0.53721425177 0.3656776015 -0.64011973572 -0.67566753341 0.36975048435 -0.50772677019 -0.77813758819 
0.3932918714 -0.37386162855 -0.83996963433 0.4393393253 -0.24498239737 -0.86427112773 0.50389761424 -0.12424108866 -0.85478146111 
0.58017043262 -0.015537517211 -0.81434688842 0.66152995711 0.075881042679 -0.74606982462 0.74280789307 0.14508471209 -0.65359533375 
0.81945968837 0.18961332955 -0.54086283325 0.88594952515 0.21110332298 -0.41295136022 0.93609124691 0.21586011791 -0.27773654236 
0.96585834666 0.21392165981 -0.14613410842 0.97606497875 0.21558331277 -0.028652967034 0.97136067588 0.22741886676 0.068841095245 
0.95698907637 0.25044434858 0.14645660096 0.93680382589 0.28025572937 0.20941661337 0.91318048146 0.30811708708 0.26676819323 
0.88722339295 0.32214349946 0.33023963535 0.85730855017 0.30829086517 0.41228484359 0.81551251571 0.25323017296 0.5203977481 
0.74686972789 0.15346602935 0.64701915536 0.64173732404 0.030236117999 0.76632824828 0.51048748264 -0.075215722512 0.85658923946 
0.36915267158 -0.13116070472 0.92006694028 0.21594211574 -0.12386926554 0.96851711792 0.026332886397 -0.042035516239 0.9987690396 
-0.23536373547 0.13168902896 0.96294439698 -0.5467975577 0.37598893954 0.74809407713 -0.74641343622 0.56238585955 0.35579365819 
-0.77299234637 0.6344119834 0.0020658583943 -0.71298560944 0.66220904589 -0.23050097674 -0.61434817975 0.69472537129 -0.37407615872 
-0.47915875805 0.7488424074 -0.45786672019 -0.27733467941 0.82893250403 -0.48575341415 0.077906747637 0.90742917914 -0.41291987542 
0.65546371573 0.74938967673 -0.093714618799 0.93410524196 0.19087917981 0.30168283951 0.87213954499 -0.21268908815 0.44060863115 
0.77629649615 -0.44726807766 0.44420154973 0.69398525698 -0.61146967784 0.38011747682 0.61934619552 -0.74053975002 0.26078951041 
0.5397302664 -0.83749201187 0.085430495618 0.44118909241 -0.88635680835 -0.14044142202 0.31498135124 -0.86594454956 -0.38849296706 
0.16750535039 -0.77470858478 -0.60972827247 0.016916726596 -0.64200589514 -0.76651304944 -0.12287864953 -0.50540887668 -0.85408588845 
-0.25019781927 -0.38844361477 -0.88685546138 -0.37316992933 -0.29991672598 -0.87794883753 -0.50928435095 -0.24141157067 -0.82604473452 
-0.6960153274 -0.21177107443 -0.68608722191 -0.96722380884 -0.18616934488 -0.17268201599 -0.49123933572 0.0031826130865 0.8710188207 
0.049687902097 0.12815494877 0.99050866805 0.27805399506 0.20184532711 0.93911896997 0.4123901841 0.27434373378 0.86871736013 
0.50626922865 0.35320066929 0.78672787883 0.57340674151 0.43783693893 0.69246192942 0.61669468931 0.52525377477 0.58634131038 
0.63614557039 0.61138869277 0.47066195898 0.63210642494 0.69171639137 0.34924189533 0.60660949368 0.76191169224 0.22697025224 
0.56363969948 0.81876309962 0.1092578412 0.50850646488 0.86105706745 0.0013790463563 0.44688688344 0.88979371026 -0.092516304481 
0.38352704971 0.90783547492 -0.16953392765 0.32158161833 0.91902534926 -0.22798611836 0.26243238752 0.927309039 -0.26688422241 
0.20570168605 0.93620323854 -0.28497423131 0.14920793966 0.94848086347 -0.27950141747 0.087366942148 0.9662322559 -0.24240925121 
0.0030996816132 0.9894089767 -0.14512156561 -0.18350220698 0.96991833978 0.15995422533 -0.49234758656 -0.041830502374 0.8693929279 
-0.31042442934 -0.69633507001 0.64711215716 -0.24781054026 -0.81801117152 0.51908348018 -0.23877877985 -0.86204377026 0.4470628954 
-0.25785729303 -0.88225811846 0.39386574976 -0.29692529432 -0.89006779659 0.34585356305 -0.35195071941 -0.88792897082 0.29616352559 
-0.41947893489 -0.87533097169 0.24048516207 -0.49544746068 -0.85056889301 0.17625087787 -0.57470520673 -0.81190287181 0.10260434736 
-0.65122278539 -0.75860746511 0.020581488313 -0.71878604336 -0.69197117195 -0.0672496919 -0.77225517096 -0.61550500025 -0.1574024955 
-0.80847535641 -0.53438111626 -0.24658552403 -0.8265414736 -0.45418601007 -0.33248197044 -0.82707772603 -0.3798768818 -0.41428974133 
-0.811457534 -0.31499823041 -0.49225276571 -0.78081600468 -0.26168660731 -0.56731515615 -0.73581303526 -0.22071694126 -0.64020559899 
-0.67641543166 -0.19190154958 -0.71108083864 -0.60224627443 -0.17425666179 -0.77905971579 -0.51437348651 -0.16566769831 -0.84141198596 
-0.41751309934 -0.16274714487 -0.89397772831 -0.32292089093 -0.1606535924 -0.9326910107 -0.24947225939 -0.15338922123 -0.95615654503 
-0.21486369035 -0.13601903707 -0.9671258533 -0.22638025643 -0.10588709408 -0.96826644205 -0.27311292534 -0.064287156251 -0.95983149123 
-0.33323722807 -0.015510216038 -0.94271543057 -0.38803563284 0.036130415076 -0.9209359048 -0.42847449735 0.08821221477 -0.89923757166 
-0.45396202289 0.1400483754 -0.87994598375 -0.46686491084 0.19095972096 -0.86346484584 -0.47061890554 0.23964289037 -0.84916967141 
-0.46827997951 0.28391494893 -0.8367234684 -0.46299329972 0.32130936198 -0.82607354292 -0.45720824386 0.34940205295 -0.81785012511 
-0.45290063942 0.36635608653 -0.81281254215 -0.45290063942 0.36635608653 -0.81281254215 
FrenetBinormal 3 128 double
0.24278095988 -0.2378363087 0.94047397401 0.24278095988 -0.2378363087 0.94047397401 0.256651263 -0.21645220135 0.94195465588 
0.27599193005 -0.18396105057 0.94339111 0.29771697546 -0.14245677629 0.9439653963 0.31850304741 -0.09501573078 0.94314782494 
0.33543933973 -0.04573624632 0.940950926 0.34668159977 0.00044680382824 0.9379827657 0.35196860787 0.038197903407 0.93523206706 
0.35282187983 0.061966732406 0.93363635597 0.35254611384 0.066115451132 0.93345593615 0.35601258986 0.044974844179 0.93339825329 
0.3691043471 -0.0067688729273 0.92936331072 0.39715088174 -0.091662465488 0.9131643716 0.44175082221 -0.20442243124 0.87353745236 
0.49749223051 -0.32710829855 0.80343116793 0.55349862687 -0.43406899368 0.71079067156 0.60075024519 -0.50824053435 0.61708241115 
0.63593117417 -0.5491938511 0.54219706347 0.65873708094 -0.56627765549 0.49537367218 0.66874321306 -0.57021988864 0.47710773793 
0.6642152382 -0.56963584455 0.48407966487 0.64235294335 -0.57072934666 0.5115180437 0.59996688595 -0.57748581358 0.55366945995 
0.53500251357 -0.59154134173 0.60320075555 0.44923807979 -0.61185093181 0.65101734609 0.35065534412 -0.63509234673 0.68825761221 