# vtk DataFile Version 4.2
vtk output
ASCII
DATASET POLYDATA
POINTS 128 float
0 0 0 -0.06695 0.312686 -0.12376 -0.238278 0.916605 -0.319266 
-0.476048 1.4035 -0.375426 -0.770087 1.77189 -0.311165 -1.11599 2.10869 -0.195242 
-1.50141 2.40146 -0.0394635 -1.91288 2.61678 0.157262 -2.34188 2.74916 0.384112 
-2.78009 2.79968 0.627918 -3.21374 2.76284 0.880498 -3.62784 2.63405 1.13545 
-4.00952 2.42291 1.38785 -4.34846 2.14393 1.6336 -4.64427 1.81382 1.87034 
-4.90072 1.44815 2.09622 -5.1266 1.05224 2.30886 -5.33171 0.627921 2.49795 
-5.52166 0.177376 2.60739 -5.69773 -0.29275 2.57478 -5.84386 -0.748895 2.40326 
-5.94046 -1.15522 2.12404 -5.98755 -1.52566 1.78579 -5.99176 -1.89001 1.43873 
-5.9542 -2.25814 1.10036 -5.87412 -2.63142 0.774824 -5.75331 -3.00775 0.464925 
-5.5948 -3.38333 0.172064 -5.4027 -3.75238 -0.108639 -5.18169 -4.10851 -0.384716 
-4.93683 -4.44732 -0.662256 -4.67319 -4.76594 -0.94608 -4.3946 -5.06596 -1.23616 
-4.10412 -5.35169 -1.52946 -3.8039 -5.63108 -1.81821 -3.4954 -5.91412 -2.09223 
-3.17817 -6.21106 -2.34324 -2.85227 -6.53317 -2.56044 -2.53516 -6.9007 -2.6938 
-2.25734 -7.33274 -2.67361 -2.07747 -7.77191 -2.47904 -2.0637 -8.11909 -2.12559 
-2.20106 -8.34373 -1.68028 -2.42909 -8.45563 -1.23394 -2.71422 -8.46714 -0.821085 
-3.0382 -8.39089 -0.44427 -3.3797 -8.23055 -0.109564 -3.71536 -7.98522 0.175497 
-4.02133 -7.66215 0.412068 -4.2745 -7.2739 0.607051 -4.46287 -6.83715 0.772159 
-4.58232 -6.37102 0.921993 -4.63807 -5.89383 1.06983 -4.64107 -5.42244 1.22887 
-4.59709 -4.96224 1.42303 -4.50851 -4.51645 1.68312 -4.3823 -4.16876 2.03216 
-4.22955 -4.05329 2.48151 -4.07174 -4.18409 2.96151 -3.93562 -4.48668 3.35135 
-3.82053 -4.89336 3.62711 -3.70871 -5.34488 3.82661 -3.5942 -5.81546 3.95867 
-3.47948 -6.30135 4.01233 -3.37138 -6.79253 3.98331 -3.27976 -7.27468 3.87312 
-3.21574 -7.7404 3.69429 -3.19102 -8.18802 3.46771 -3.213 -8.62363 3.219 
-3.28525 -9.05916 2.97756 -3.40272 -9.50527 2.77772 -3.5527 -9.97066 2.65698 
-3.70943 -10.4505 2.6396 -3.8366 -10.9282 2.73731 -3.90615 -11.386 2.94045 
-3.89833 -11.8052 3.22097 -3.8083 -12.1749 3.5519 -3.64457 -12.4911 3.90818 
-3.4185 -12.7541 4.27248 -3.14358 -12.9681 4.63483 -2.83214 -13.1381 4.99027 
-2.4952 -13.2698 5.33848 -2.14167 -13.3684 5.68071 -1.77829 -13.4388 6.01955 
-1.4098 -13.4848 6.35691 -1.03878 -13.5088 6.69378 -0.665644 -13.5122 7.0291 
-0.288458 -13.4944 7.35952 0.0953995 -13.4558 7.68037 0.489165 -13.397 7.9856 
0.894715 -13.3217 8.27136 1.31207 -13.2376 8.53679 1.7399 -13.1541 8.78499 
2.17514 -13.0828 9.02429 2.61352 -13.0344 9.26363 3.04912 -13.0178 9.51236 
3.47477 -13.0401 9.778 3.88157 -13.1061 10.0652 4.26009 -13.2188 10.3762 
4.60038 -13.3788 10.7096 4.89431 -13.5849 11.0616 5.13705 -13.8335 11.4249 
5.32628 -14.1205 11.7915 5.46371 -14.4413 12.1532 5.55176 -14.7916 12.5023 
5.59337 -15.1673 12.8332 5.59157 -15.564 13.1413 5.54938 -15.9765 13.4246 
5.47072 -16.4 13.6823 5.36141 -16.8307 13.9159 5.22792 -17.2657 14.1273 
5.07764 -17.7045 14.3187 4.91723 -18.1473 14.4917 4.75135 -18.5952 14.6451 
4.58346 -19.0496 14.7762 4.41484 -19.5111 14.8781 4.24636 -19.9797 14.9425 
4.07874 -20.4529 14.9588 3.91274 -20.9263 14.9192 3.74931 -21.3905 14.824 
3.58888 -21.8395 14.6767 3.43021 -22.2802 14.4849 3.27366 -22.7138 14.2604 
3.12593 -23.1161 14.0265 2.98988 -23.4897 13.7941 2.85049 -23.949 13.525 
2.70959 -24.5175 13.2217 2.64233 -24.8121 13.0702 
LINES 1 129
128 0 1 2 3 4 5 6 7 8 9 10 11 12 13 14 15 16 17 18 19 20 21 22 23 24 25 26 27 28 29 30 31 32 33 34 35 36 37 38 39 40 41 42 43 44 45 46 47 48 49 50 51 52 53 54 55 56 57 58 59 60 61 62 63 64 65 66 67 68 69 70 71 72 73 74 75 76 77 78 79 80 81 82 83 84 85 86 87 88 89 90 91 92 93 94 95 96 97 98 99 100 101 102 103 104 105 106 107 108 109 110 111 112 113 114 115 116 117 118 119 120 121 122 123 124 125 126 127 

CELL_DATA 1
FIELD FieldData 2
Length 1 1 double
52.401211511 
Tortuosity 1 1 double
0.8602911175 
POINT_DATA 128
SCALARS MaximumInscribedSphereRadius float
LOOKUP_TABLE default
0.93 0.814312 0.698624 0.832142 0.97334 1.16395 1.35602 1.38543 1.40758 
1.17444 0.925309 0.787347 0.658273 0.74255 0.847778 0.977522 1.11024 1.1409 
1.15644 1.0882 1.00556 1.1783 1.39324 1.35681 1.27225 1.22533 1.18677 
1.16287 1.14271 1.0683 0.978197 1.01068 1.08323 1.15741 1.23219 1.31502 
1.40116 1.46968 1.53018 1.65286 1.80584 1.90647 1.98538 1.95568 1.8822 
1.86234 1.86532 1.87076 1.87731 1.87072 1.85776 1.79623 1.70935 1.63777 
1.5749 1.55064 1.55018 1.5674 1.59557 1.5404 1.44271 1.28167 1.08635 
1.16806 1.41135 1.44845 1.35666 1.40132 1.53793 1.67128 1.80225 1.77047 
1.6103 1.41497 1.19068 1.21758 1.45931 1.62648 1.72643 1.68809 1.51612 
1.51277 1.68615 1.84249 1.97934 2.01446 1.92228 1.86711 1.86267 1.86439 
1.87538 1.91981 2.01938 2.09877 2.1415 2.15625 2.11494 2.05949 1.97291 
1.89249 1.82687 1.78291 1.79597 1.81014 1.82754 1.82101 1.73714 1.68784 
1.76405 1.85861 2.02902 2.16629 2.14481 2.11052 2.00372 1.92344 2.02341 
2.11568 2.14409 2.18448 2.34917 2.4978 2.42372 2.33302 1.90767 1.49448 
1.36724 1.24 
TEXTURE_COORDINATES TCoords 2 float
0 0 0.00787402 0 0.015748 0 0.023622 0 0.0314961 
0 0.0393701 0 0.0472441 0 0.0551181 0 0.0629921 0 
0.0708661 0 0.0787402 0 0.0866142 0 0.0944882 0 0.102362 
0 0.110236 0 0.11811 0 0.125984 0 0.133858 0 
0.141732 0 0.149606 0 0.15748 0 0.165354 0 0.173228 
0 0.181102 0 0.188976 0 0.19685 0 0.204724 0 
0.212598 0 0.220472 0 0.228346 0 0.23622 0 0.244094 
0 0.251969 0 0.259843 0 0.267717 0 0.275591 0 
0.283465 0 0.291339 0 0.299213 0 0.307087 0 0.314961 
0 0.322835 0 0.330709 0 0.338583 0 0.346457 0 
0.354331 0 0.362205 0 0.370079 0 0.377953 0 0.385827 
0 0.393701 0 0.401575 0 0.409449 0 0.417323 0 
0.425197 0 0.433071 0 0.440945 0 0.448819 0 0.456693 
0 0.464567 0 0.472441 0 0.480315 0 0.488189 0 
0.496063 0 0.503937 0 0.511811 0 0.519685 0 0.527559 
0 0.535433 0 0.543307 0 0.551181 0 0.559055 0 
0.566929 0 0.574803 0 0.582677 0 0.590551 0 0.598425 
0 0.606299 0 0.614173 0 0.622047 0 0.629921 0 
0.637795 0 0.645669 0 0.653543 0 0.661417 0 0.669291 
0 0.677165 0 0.685039 0 0.692913 0 0.700787 0 
0.708661 0 0.716535 0 0.724409 0 0.732283 0 0.740157 
0 0.748031 0 0.755906 0 0.76378 0 0.771654 0 
0.779528 0 0.787402 0 0.795276 0 0.80315 0 0.811024 
0 0.818898 0 0.826772 0 0.834646 0 0.84252 0 
0.850394 0 0.858268 0 0.866142 0 0.874016 0 0.88189 
0 0.889764 0 0.897638 0 0.905512 0 0.913386 0 
0.92126 0 0.929134 0 0.937008 0 0.944882 0 0.952756 
0 0.96063 0 0.968504 0 0.976378 0 0.984252 0 
0.992126 0 1 0 
FIELD FieldData 7
Curvature 1 128 double
0 0.074520561012 0.14187159902 0.20903237248 0.27372515772 0.33165022608 0.37746071529 0.40678131756 0.41826178288 
0.41425217166 0.39986901482 0.38120269979 0.36384653864 0.35196578258 0.34771843234 0.35076494196 0.35793718582 0.36378126721 
0.36221791015 0.34913199785 0.32438287896 0.29160340353 0.25604369977 0.22220618601 0.19262037821 0.16786766996 0.14728494301 
0.12979935118 0.11461849813 0.10183083163 0.092914310349 0.091196667945 0.10123121172 0.12681473978 0.17123737252 0.24053211851 
0.34692555361 0.5115089203 0.76192354604 1.1053477434 1.4502543738 1.5787554444 1.3939399622 1.068987361 0.77946791994 
0.57087831825 0.42775427239 0.32796742133 0.25691205032 0.20850093104 0.18497663676 0.19519233864 0.24750161724 0.3481439402 
0.5082058733 0.738685491 1.0176085322 1.2390444008 1.2580436046 1.0717997872 0.81890832668 0.60115233236 0.43990544833 
0.32305316828 0.23515968712 0.16536789117 0.10808161799 0.065877552158 0.061559589891 0.099194545519 0.15144777092 0.20798328445 
0.26328919571 0.3108735846 0.34366251636 0.35668490272 0.34959860074 0.32682967844 0.29497218039 0.26009820407 0.22629274958 
0.19560504784 0.16864655721 0.14512256872 0.12433233105 0.10539557494 0.087422542593 0.069631386608 0.051539892058 0.033508425529 
0.020001876482 0.026738982975 0.048298208691 0.074243233047 0.1022119981 0.13104836425 0.15959821745 0.18641672942 0.20985837736 
0.22829900431 0.24048183861 0.24579055992 0.24443473739 0.23730198614 0.22579691003 0.21148685403 0.1959478678 0.18060555597 
0.16668235494 0.15520518756 0.14690198151 0.14213877344 0.14072695249 0.14198185419 0.14468609525 0.14730516531 0.14824570675 
0.14622901799 0.14040667597 0.13066509802 0.11751647494 0.10186959894 0.084771120395 0.067081166516 0.049421535034 0.03205302489 
0.015000279656 0 
Torsion 1 128 double
0 0 -0.026300512809 -0.036516827986 -0.047592417067 -0.059678497918 -0.073326798255 -0.089494389809 -0.10943534428 
-0.13441758299 -0.16487364846 -0.19907235852 -0.23154559413 -0.2529280941 -0.2532527717 -0.22806583526 -0.18168929415 -0.12352008567 
-0.062097160237 -0.0020773413392 0.054837022207 0.10750479262 0.15373776487 0.19018926318 0.21420331443 0.22722234533 0.23724226222 
0.25831570716 0.30853786705 0.40546647623 0.54827290838 0.67317465362 0.66790006793 0.53832347535 0.39054020672 0.27705431906 
0.19683436159 0.13605387376 0.082342917419 0.029504302092 -0.022684764067 -0.077122933982 -0.14200944182 -0.21675761707 -0.28947099542 
-0.35503147355 -0.42324361016 -0.51549381623 -0.66287905331 -0.89191396285 -1.138847037 -1.1651866108 -0.92703155703 -0.66021708947 
-0.46444939051 -0.32868457887 -0.23312712284 -0.16923324856 -0.130912048 -0.1106450303 -0.10440797665 -0.11256975252 -0.13654713737 
-0.17947172439 -0.25367309939 -0.40040330867 -0.76890014476 -1.8327779733 -2.0774978653 -0.89954854273 -0.48062438182 -0.33245446093 
-0.2667016714 -0.23065734545 -0.20616333076 -0.1857737686 -0.16604936049 -0.14557336679 -0.12451569599 -0.10421347633 -0.086828099666 
-0.074543817917 -0.069330818107 -0.072545766164 -0.08499053896 -0.10781451247 -0.14511308673 -0.21137312361 -0.35776390105 -0.81015505422 
-2.3235754081 -1.4349071351 -0.51461973156 -0.25988217373 -0.16054290448 -0.10874105796 -0.075512423301 -0.050697389341 -0.030074631587 
-0.011851989089 0.0048335797552 0.02055861773 0.03578995218 0.051035106222 0.067120840173 0.085066842285 0.10572998107 0.12951462884 
0.15520084389 0.17926165387 0.19641859065 0.20060446656 0.18976582815 0.16714510709 0.13917014233 0.11200312904 0.089620311933 
0.073397612947 0.062945120454 0.057272968326 0.054580025635 0.053223295618 0.051648294927 0.047770939273 0.040691547696 0.031013205619 
0 0 
Abscissas 1 128 double
0 0.50158126045 1.0031625209 1.5047451495 2.0063278203 2.5079086804 3.0094894868 3.5110704147 4.012651348 
4.514229517 5.0158075128 5.5173885491 6.0189698285 6.5205533397 7.0221370701 7.5237181221 8.0252988496 8.5268802561 
9.0284617633 9.5300424876 10.031623077 10.533204795 11.034786698 11.536368587 12.037950472 12.539531528 13.041112399 
13.54269263 14.044272697 14.54585273 15.047432753 15.549015233 16.050598518 16.552178573 17.053757441 17.555338153 
18.056919623 18.558500734 19.060081682 19.561665329 20.06325029 20.564831163 21.06641034 21.567990616 22.069571335 
22.571151066 23.072730376 23.574312049 24.075894796 24.577476831 25.07905852 25.58063813 26.082216655 26.583796997 
27.08537837 27.586960444 28.088542952 28.590126194 29.091709892 29.593289262 30.094866422 30.596447156 31.098029823 
31.599612314 32.101194703 32.602776363 33.104357568 33.605939957 34.107523145 34.609104794 35.110685316 35.612261651 
36.113834684 36.61540431 37.11697113 37.618550086 38.120139423 38.621728981 39.123318739 39.62490107 40.126476225 
40.62805344 41.129632816 41.631214095 42.132797553 42.634380714 43.135963506 43.637546737 44.139130569 44.640714331 
45.142297987 45.643877166 46.145448965 46.647025789 47.148611745 47.650196925 48.151780554 48.653363266 49.154943959 
49.656530481 50.158131029 50.659716837 51.161263825 51.662819461 52.164400228 52.665985949 53.167587686 53.669188269 
54.170784661 54.672375414 55.17394286 55.675507577 56.177059214 56.678621382 57.180243168 57.681859759 58.183441038 
58.685022479 59.186605258 59.688186977 60.1897577 60.691327384 61.192882661 61.694440294 62.196045357 62.697648592 
63.199208843 63.700769094 
ParallelTransportNormals 3 128 double
-0.96738550967 -0.25330865695 0 -0.90682127914 -0.39132953466 0.023691908314 -0.84625704862 -0.52935041238 0.047383816627 
-0.7492359764 -0.64409629227 0.02635976865 -0.65109138656 -0.75812488924 0.0039576757629 -0.53582924647 -0.83027517235 -0.046697858257 
-0.42006020237 -0.90118530808 -0.098190064721 -0.28604332688 -0.92992353033 -0.17000074349 -0.15121315954 -0.95678218278 -0.24271700098 
-0.013086165929 -0.93084643479 -0.32569918948 0.12524734548 -0.90160357188 -0.40932445022 0.225680729 -0.83754468628 -0.47839121633 
0.32308402337 -0.77070228363 -0.54629404082 0.37918230598 -0.70503168812 -0.59177083064 0.43122429526 -0.63947616809 -0.63504530721 
0.47743595917 -0.55505018201 -0.67298998312 0.52294116121 -0.46833765721 -0.71028884585 0.59850757609 -0.27863700653 -0.7181838229 
0.67853029597 -0.073669290561 -0.72171993782 0.7301222075 0.10860393492 -0.64314118421 0.77682702602 0.28697610754 -0.55044735529 
0.78647530035 0.36816375463 -0.48828758283 0.79000106836 0.43329451125 -0.43117266702 0.78487989233 0.47572895545 -0.39374810591 
0.77810330373 0.51381830844 -0.36009316101 0.76527610553 0.55051418762 -0.33006960167 0.75110509244 0.58690058213 -0.30085255776 
0.72964440665 0.62582194242 -0.2701138185 0.70633047834 0.66538776324 -0.23898822092 0.67983345696 0.70111365425 -0.20856149625 
0.65241578611 0.7357289182 -0.17833690736 0.63183818945 0.75839436399 -0.15694961659 0.61349638185 0.77715381815 -0.13845093986 
0.61051009167 0.78037142197 -0.13520400747 0.61316380855 0.77788057957 -0.13755896678 0.64339226157 0.74664030556 -0.15684623169 
0.68495589267 0.70358197008 -0.18309387868 0.77366879975 0.57278219039 -0.18885924132 0.88387041538 0.40199345471 -0.18528961779 
0.94001252055 0.19743234372 -0.057474201558 0.96980967028 -0.023587142753 0.13089022525 0.92541024515 -0.12853947672 0.3052368842 
0.85023702984 -0.18535176913 0.47376953021 0.77070266533 -0.19110608418 0.59465049486 0.68940997333 -0.17627485156 0.69631926174 
0.62762139549 -0.14561317072 0.76078326063 0.57413924693 -0.10820960468 0.80940246022 0.55344279595 -0.090763984843 0.82785752764 
0.54765606778 -0.082394500883 0.83259506325 0.55481756682 -0.11050334815 0.823205537 0.56826044289 -0.15630837488 0.80696276355 
0.57463618207 -0.23092473517 0.7799436286 0.57732434417 -0.32057462529 0.74730147201 0.55783358574 -0.45747990282 0.66696079729 
0.52574325963 -0.62123037558 0.55952319031 0.43071112137 -0.76064844355 0.27657336637 0.29687558774 -0.88506567359 -0.11457909293 
0.18473834581 -0.82663303709 -0.43357461756 0.086040957122 -0.65494377165 -0.70787636512 0.025510561111 -0.49747929235 -0.85140775251 
-0.015542533149 -0.34727397686 -0.92820467679 -0.053105077262 -0.19479206055 -0.96787788795 -0.088778364564 -0.041077936303 -0.98745792616 
-0.11915094883 0.11019809848 -0.97601585135 -0.14643184092 0.26005209131 -0.94647979474 -0.15962654008 0.36891784503 -0.91168464681 
-0.16401744933 0.45216618402 -0.87360259693 -0.16791164083 0.47138024377 -0.86543985099 -0.17147111841 0.44744471987 -0.87743826754 
-0.19848962484 0.34866597678 -0.90369223448 -0.24270637041 0.19501831348 -0.94039720374 -0.29168019811 0.0035607173034 -0.93356520913 
-0.34440689487 -0.21772519043 -0.89238683977 -0.36635318599 -0.41165528761 -0.81450077254 -0.36295356892 -0.5830594353 -0.70638801006 
-0.33689953459 -0.71230505097 -0.60204241443 -0.29147042356 -0.80549479363 -0.50091866933 -0.24192542051 -0.87252119773 -0.41525881672 
-0.18866996827 -0.9159615267 -0.34353956002 -0.13893117269 -0.94687896584 -0.28348875858 -0.092590327616 -0.96569623038 -0.23471253897 
-0.050819665401 -0.97892665194 -0.19273126506 -0.013838821047 -0.98630173663 -0.15787149004 0.02039104214 -0.99115788769 -0.12613778325 
0.051474599031 -0.99313312602 -0.097979371098 0.082017754225 -0.99355689698 -0.070899530703 0.11188469111 -0.99203927759 -0.045169334427 
0.1393580761 -0.98966639623 -0.022530658738 0.16355039831 -0.98612112826 -0.0041298160241 0.17862605547 -0.9838892889 0.0072679145251 
0.18000598472 -0.98363057905 0.0081450524693 0.16829761976 -0.98526735443 0.0015955885455 0.13501105366 -0.9900291483 -0.017197847476 
0.092396073636 -0.99341082561 -0.041895712836 0.032828875748 -0.99428446274 -0.077323502203 -0.029781866151 -0.99046850889 -0.1178479157 
-0.098488767018 -0.97725939629 -0.16858076736 -0.16517173768 -0.95813861588 -0.22339092843 -0.22740262516 -0.92601381146 -0.28717003548 
-0.28446751324 -0.88879296326 -0.35271803866 -0.32909871659 -0.83930680163 -0.42252347494 -0.36813626048 -0.78625617712 -0.49183560846 
-0.39244128845 -0.72381751127 -0.55984848685 -0.41202888521 -0.65943546816 -0.62573017395 -0.4179074545 -0.58940589964 -0.68541854129 
-0.42047306628 -0.52006736586 -0.74159306503 -0.4123272001 -0.45296309055 -0.78640660446 -0.40292899103 -0.38887652245 -0.82761053982 
-0.38898407509 -0.33574592355 -0.85570958852 -0.37513466331 -0.28529226776 -0.88157088629 -0.3616799581 -0.24590207765 -0.8981838439 
-0.34793051744 -0.20616860318 -0.91420087731 -0.33276877717 -0.16479019455 -0.92736238879 -0.31630928936 -0.11976856417 -0.9403163145 
-0.2925026648 -0.054121004786 -0.95209500307 -0.26736845369 0.015468546895 -0.96215186408 -0.2332102148 0.1118530733 -0.96050491583 
-0.19913069747 0.20800511501 -0.95651078894 -0.16570469122 0.30222717319 -0.93303143997 -0.13342495276 0.39313092773 -0.90935142374 
-0.11303330709 0.44962012242 -0.88359026126 -0.093633589723 0.50339889636 -0.85893670848 -0.087985793253 0.5196008702 -0.84963886318 
-0.082958417675 0.53380324619 -0.84147718044 -0.090420573845 0.50775223744 -0.85618729079 -0.097578385422 0.48276372102 -0.87029744821 
-0.097578385422 0.48276372102 -0.87029744821 -0.097578385422 0.48276372102 -0.87029744821 
FrenetTangent 3 128 double
-0.61739139078 0.78498256591 0.051285883031 -0.61739139078 0.78498256591 0.051285883031 -0.64523564555 0.75994188546 0.078481159735 
-0.68705938507 0.71648661065 0.12081530593 -0.73805611945 0.65152246843 0.17547546174 -0.79164417852 0.56269414971 0.23806467293 
-0.84021883642 0.44991313647 0.30267222627 -0.87660501208 0.31638102687 0.36258336784 -0.89571977656 0.16841734438 0.41148715654 
-0.89560977068 0.014030134481 0.44461926858 -0.8773520041 -0.13902434275 0.45926647279 -0.84401367813 -0.28471589554 0.45450827271 
-0.79930116369 -0.41924562564 0.43052381478 -0.74644418478 -0.54068381887 0.38792020701 -0.68755841012 -0.64813023796 0.32739979738 
-0.62350147078 -0.74080880437 0.24989644117 -0.55416877935 -0.8174360052 0.15714751478 -0.47913865672 -0.87617006306 0.0524611116 
-0.39846319005 -0.91529659124 -0.058815272187 -0.31324724649 -0.93438749948 -0.16969432334 -0.22563683954 -0.93519273421 -0.27295158273 
-0.13821775967 -0.92153738151 -0.36285631508 -0.053275305274 -0.89825468034 -0.43623419294 0.027622128146 -0.86990546334 -0.49244441604 
0.10360558752 -0.83998310862 -0.53262957059 0.17424869814 -0.81077115086 -0.55882692502 0.2393094225 -0.78363108666 -0.57328293217 
0.29858577317 -0.75943069043 -0.5780238425 0.35187860848 -0.73891795084 -0.57461439837 0.39901990077 -0.72295326157 -0.56402278357 
0.4398956242 -0.71258645709 -0.54654586356 0.47440889969 -0.70900742076 -0.52177070941 0.50237399077 -0.71341210159 -0.48853203243 
0.52331388412 -0.72682452338 -0.44482433714 0.53614203781 -0.74986775753 -0.38762102822 0.53868823221 -0.78238316325 -0.31255651383 
0.52695368894 -0.82264243602 -0.21349293236 0.4939990363 -0.86556039356 -0.082280965162 0.42872692568 -0.89894248266 0.089975752649 
0.31672973667 -0.89767869487 0.30635801717 0.14989121623 -0.82326038026 0.54751709526 -0.052138106861 -0.64941499412 0.75864470158 
-0.23939119668 -0.40337794492 0.88316368161 -0.37277301366 -0.14777033514 0.91608089618 -0.44766177411 0.076097692467 0.89095907718 
-0.47663350947 0.25834675534 0.84028414936 -0.47293332723 0.40273461547 0.78367014585 -0.44632406093 0.51514727621 0.73172270461 
-0.40365241107 0.60021239112 0.69051416828 -0.34979996308 0.66093295631 0.66393344026 -0.28817866184 0.69880848106 0.65469058773 
-0.22089369017 0.71368791064 0.66472215537 -0.14879943534 0.70320239298 0.69524464942 -0.071651178751 0.66176308271 0.74628126799 
0.011371253196 0.57933877196 0.81500753488 0.10010979953 0.44132600772 0.8917451334 0.18989927839 0.23400673657 0.95350884176 
0.26736838986 -0.037654384013 0.96285839637 0.31401787725 -0.33053575688 0.89002184591 0.3218467731 -0.58298791223 0.74601591729 
0.29981166004 -0.76294436718 0.57273803881 0.26198010645 -0.87587432997 0.40522904871 0.21807363658 -0.94081129877 0.2594571046 
0.17302801702 -0.97493751488 0.13985044654 0.12923876879 -0.9905139829 0.046683940674 0.088191593866 -0.99588860676 -0.020691198553 
0.051264599267 -0.99670142689 -0.062914278896 0.020072715371 -0.99655448798 -0.080475080521 -0.0033946864385 -0.99726774861 -0.073793723901 
-0.016749727997 -0.99891718285 -0.043404013837 -0.017314628902 -0.99980310002 0.0096935450639 -0.0024541114734 -0.99650893929 0.08345005238 
0.029786364566 -0.98428955275 0.17403117203 0.07977318139 -0.95805813938 0.27524687302 0.14545463405 -0.91399997292 0.37874397544 
0.22221858896 -0.85123769224 0.47540855065 0.30382954887 -0.77251092423 0.55759705628 0.38409019013 -0.68326881534 0.62098184501 
0.45827949432 -0.58976970182 0.66494481268 0.52371459393 -0.49739761105 0.69160584196 0.57952262175 -0.40988027502 0.70438035963 
0.62606012721 -0.32933562133 0.70681451997 0.66434874549 -0.25670732489 0.70195590582 0.69566730158 -0.19226445671 0.69215705168 
0.72129983066 -0.1359988528 0.67913979881 0.74239489624 -0.087880457916 0.66417380493 0.75988631197 -0.047999221105 0.64828147255 
0.77445256177 -0.016616025632 0.63241373899 0.78649974529 0.0058552722477 0.61756284412 0.79615512574 0.018919923839 0.60479670323 
0.80326209292 0.022074371639 0.59521654227 0.80736936612 0.014870434533 0.58985894655 0.80772493637 -0.0030132652886 0.5895518191 
0.80327303651 -0.031710759578 0.59476622007 0.79268038756 -0.071103109324 0.60547679644 0.77442377093 -0.12072024118 0.62104303103 
0.74694982026 -0.17963179854 0.64015496793 0.70892271721 -0.24634228313 0.66086614421 0.65954118502 -0.31874140544 0.68074175846 
0.59884731375 -0.39418397099 0.69713764195 0.52791552466 -0.46971721765 0.70758104431 0.4488350029 -0.54242738742 0.71015468002 
0.36446087152 -0.60982047461 0.70376648249 0.27800813133 -0.67011572661 0.68822699152 0.19261041996 -0.72237926127 0.6641305813 
0.11096952834 -0.76649117807 0.63259547716 0.035154908753 -0.80298799173 0.5949574922 -0.03345735002 -0.83284477789 0.55249450827 
-0.094127904117 -0.85724928744 0.50622484811 -0.14664620292 -0.87739771447 0.45680208166 -0.19119568031 -0.89432871917 0.40450012843 
-0.22820789559 -0.90880543726 0.34927615664 -0.25824474133 -0.92123500218 0.29092219636 -0.28189988722 -0.93165229379 0.22925195103 
-0.2997322151 -0.93976774516 0.16430819939 -0.31224022102 -0.94508202419 0.096571279032 -0.31988444995 -0.94706927397 0.027087432292 
-0.32313773855 -0.94539476735 -0.042552741208 -0.32254270202 -0.94009839095 -0.11036856758 -0.31875871726 -0.93167764828 -0.17426887235 
-0.31256183879 -0.92103385604 -0.23238272947 -0.30481903038 -0.90930032909 -0.28329890615 -0.29642665752 -0.89763167202 -0.3261726814 
-0.28824749547 -0.88703092305 -0.36067925213 -0.28106569283 -0.87825258272 -0.38687785832 -0.27553433672 -0.87179558346 -0.40503492436 
-0.27213715776 -0.86795201013 -0.41545237449 -0.27213715776 -0.86795201013 -0.41545237449 
FrenetNormal 3 128 double
-0.61356155582 -0.5213177966 0.59310199136 -0.61356155582 -0.5213177966 0.59310199136 -0.5882249435 -0.55971812184 0.58370115635 
-0.54513563124 -0.6182259226 0.56623656909 -0.48252589743 -0.6914272659 0.53767750026 -0.39968810929 -0.77164688316 0.49478328893 
-0.2981938753 -0.84957751372 0.43508442964 -0.18258581505 -0.91581757239 0.3576878447 -0.05998724645 -0.96279703396 0.26348320943 
0.061293027162 -0.9860771075 0.1545804091 0.17344251842 -0.98427805602 0.033382648671 0.27044292238 -0.957759861 -0.097758244599 
0.34876100219 -0.90706355891 -0.23579962564 0.40787136546 -0.83234528265 -0.37528959443 0.45066948318 -0.73442612208 -0.50745964187 
0.48320337408 -0.61641524213 -0.62172883843 0.51266089553 -0.48389836242 -0.70923986143 0.54461255518 -0.34363274049 -0.76505797454 
0.58145003023 -0.202493027 -0.78797997205 0.62298788705 -0.067318391608 -0.77932940836 0.66810824554 0.055368851034 -0.74200112033 
0.71575777675 0.16028139168 -0.67970631931 0.76468974335 0.24424553454 -0.59631679103 0.81263659456 0.30642001143 -0.49571013888 
0.85601443349 0.34798905658 -0.38228641901 0.89103340766 0.37139712039 -0.26100506778 0.9154072824 0.37891989508 -0.13582790743 
0.92882969591 0.37044263102 -0.0069031238149 0.93081805747 0.34101021083 0.13149060799 0.91541199153 0.27855553226 0.29056445276 
0.86245810568 0.16558179967 0.47827678552 0.73742838889 -0.0036240636251 0.67541560348 0.53327575582 -0.18910208153 0.82453463906 
0.30728154095 -0.32593239524 0.8940615909 0.11373787215 -0.39083653253 0.9134059893 -0.040640760653 -0.3946837092 0.91791780583 
-0.17026754667 -0.34829149435 0.92179281702 -0.28886570318 -0.25264586668 0.92343200701 -0.40320881057 -0.10126861572 0.90948739549 
-0.50837122232 0.11202068605 0.85382086307 -0.58176966388 0.37431744995 0.72210145052 -0.58933174826 0.63330055496 0.50161588649 
-0.51783279189 0.82248603041 0.23529965879 -0.38962642084 0.92091873641 -0.0099966551187 -0.23319697213 0.95195897456 -0.19847741168 
-0.063166049612 0.94330850233 -0.32585137656 0.1170849562 0.91026210352 -0.39713223986 0.30994870187 0.85606294093 -0.4136279045 
0.51996047765 0.77149673013 -0.36665228362 0.74210863837 0.62803079823 -0.23420522057 0.9247660253 0.38053517933 0.00088075961174 
0.96010379433 0.039287489644 0.27687036184 0.84148611345 -0.27923172471 0.46252650172 0.68326220764 -0.51251816596 0.52007488419 
0.54762014451 -0.68557214778 0.47969053307 0.43578570509 -0.82515860441 0.35944971387 0.33011622174 -0.92985547199 0.16245639831 
0.21442939737 -0.9718560301 -0.097549424954 0.087630668791 -0.92334811744 -0.37383033572 -0.0351568473 -0.79475629568 -0.60590958613 
-0.14043326695 -0.629110312 -0.76452515516 -0.22736052238 -0.46409077193 -0.85611152794 -0.30360815792 -0.31806381721 -0.89814113291 
-0.37942034118 -0.19701356513 -0.90400545344 -0.46665874435 -0.10229268855 -0.87850203312 -0.58213753165 -0.034673684672 -0.81235068156 
-0.7553110932 0.0025191907123 -0.65536158429 -0.98166033074 -0.0043821009714 -0.19058801707 -0.71276105772 -0.049346402089 0.69966892685 
-0.17760737168 -0.039747261944 0.98329841691 0.10232322078 0.0078722251182 0.99472005437 0.26806307122 0.079740553729 0.96009563791 
0.38401173432 0.17201548517 0.90716352482 0.47016103341 0.27964596851 0.83710616708 0.53227154723 0.394986432 0.74878082143 
0.57181324149 0.50872284959 0.64360755058 0.59015887399 0.61206193701 0.52639594291 0.58990834221 0.69899808366 0.40423981352 
0.57489873695 0.76724933274 0.28428841633 0.54934601597 0.81768363069 0.17208263957 0.51737100198 0.85284327222 0.070608776633 
0.48265225515 0.8755942737 -0.019531217465 0.44850658254 0.88820608876 -0.099658362978 0.4180224424 0.89193072185 -0.17238568697 
0.39408601889 0.88692925639 -0.24094128719 0.37951340849 0.87212593836 -0.30881373094 0.37730675056 0.84465984433 -0.37972274538 
0.39187991743 0.79737029608 -0.45894524864 0.4319366926 0.70949300407 -0.55682166873 0.51597507959 0.50088371443 -0.69489943291 
0.58724164637 -0.19643029285 -0.78521486793 0.18587676824 -0.9551932388 -0.23033823734 -0.076989854954 -0.99196278273 0.1004111543 
-0.2028569712 -0.95344554176 0.22313818171 -0.29076648103 -0.91702684927 0.272977309 -0.36746777477 -0.88490101413 0.28621256033 
-0.44102410472 -0.85437222511 0.27485603508 -0.51347696926 -0.82262992828 0.24417494372 -0.58400409581 -0.78745638939 0.19710822124 
-0.65041767923 -0.74726872851 0.13618476397 -0.70992652842 -0.70135429768 0.064081770973 -0.7598085148 -0.64994454848 -0.016220503476 
-0.79783327505 -0.59423267489 -0.101732951 -0.82257956113 -0.53607838427 -0.18969141132 -0.83336568716 -0.47774664991 -0.27795641738 
-0.82996081227 -0.42160844548 -0.36525521051 -0.81220759488 -0.3698335341 -0.4511562699 -0.77970786081 -0.32408300397 -0.53574794291 
-0.73163954493 -0.28527446675 -0.61913007915 -0.66753918301 -0.25301200029 -0.70026878186 -0.58817685638 -0.22552993029 -0.776649365 
-0.49700236147 -0.19974093204 -0.84444787451 -0.40062669372 -0.17190168122 -0.89997114636 -0.30623311919 -0.13907473069 -0.94174279715 
-0.21947779892 -0.099682562019 -0.97051166021 -0.14270681728 -0.053839293041 -0.98829959771 -0.075861354969 -0.0028956644063 -0.99711417097 
-0.01716431084 0.050812563447 -0.99856069912 0.035176565955 0.10461492874 -0.99389049995 0.082814846699 0.15578063998 -0.98431402173 
0.12690385913 0.20195816888 -0.97113763626 0.16773064973 0.2415531853 -0.95578161094 0.20538200669 0.27361889603 -0.93965468714 
0.23899050727 0.29810289047 -0.92413105355 0.26697970872 0.31565919854 -0.91053890939 0.28799115348 0.3271300787 -0.90002611469 
0.30046015902 0.33351499087 -0.89358348447 0.30046015902 0.33351499087 -0.89358348447 
FrenetBinormal 3 128 double
0.49231096657 0.33470901714 0.80349224392 0.49231096657 0.33470901714 0.80349224392 0.48750628463 0.33046021668 0.80816685631 
0.48039207418 0.3231774209 0.81534030299 0.47163749093 0.3121647147 0.82468858853 0.46211352491 0.2965406913 0.83577192373 
0.45289371784 0.27531112912 0.84799237174 0.44522586733 0.24734837768 0.86057696176 0.44055375625 0.21132314001 0.87249923688 
0.44059766623 0.16569578565 0.88228034271 0.44740491025 0.10894466738 0.88767105717 0.46314310625 0.040409249927 0.88536182189 
0.48937042521 -0.038324998065 0.87123348274 0.52579656545 -0.12191119085 0.84182874345 0.569350902 -0.20135904708 0.79705337622 
0.61462217273 -0.26689804164 0.7422971239 0.65580162411 -0.31247520262 0.68722883929 0.68834824935 -0.33799787019 0.6418209465 
0.70932569989 -0.34817915515 0.61288524815 0.71677210824 -0.34984029922 0.6031993948 0.70902707204 -0.34978399079 0.61231672434 
0.68453389685 -0.35366471405 0.6374438125 0.64219260215 -0.36535277212 0.67387388556 0.58211578163 -0.38648578428 0.71538098614 