# vtk DataFile Version 4.2
vtk output
ASCII
DATASET POLYDATA
POINTS 128 float
0 0 0 -0.249125 0.224146 0.00517082 -0.750115 0.653211 0.0231442 
-1.19514 0.983043 0.0568398 -1.59115 1.21995 0.105244 -2.02378 1.44619 0.16679 
-2.48956 1.64915 0.242815 -2.96574 1.79695 0.334731 -3.44828 1.88372 0.440732 
-3.93712 1.91059 0.557902 -4.42472 1.87551 0.682492 -4.90208 1.77689 0.810421 
-5.36405 1.62057 0.937188 -5.80734 1.41478 1.05839 -6.23178 1.16823 1.17084 
-6.63856 0.889584 1.27183 -7.03056 0.586274 1.3591 -7.41131 0.265142 1.43044 
-7.78459 -0.0680725 1.48325 -8.15419 -0.408108 1.5146 -8.52316 -0.750174 1.52068 
-8.89396 -1.08977 1.49727 -9.26666 -1.42316 1.44006 -9.63998 -1.74722 1.345 
-10.0099 -2.06107 1.21023 -10.3711 -2.36497 1.03506 -10.7178 -2.66038 0.820455 
-11.0439 -2.94938 0.568253 -11.3438 -3.2347 0.281586 -11.6118 -3.51938 -0.0357244 
-11.8428 -3.80639 -0.379022 -12.0316 -4.09858 -0.743175 -12.1742 -4.39775 -1.12239 
-12.2672 -4.70505 -1.51053 -12.3085 -5.02047 -1.9011 -12.2971 -5.34339 -2.28753 
-12.2342 -5.67259 -2.66361 -12.1224 -6.00663 -3.02346 -11.9654 -6.34439 -3.36251 
-11.7677 -6.68502 -3.67673 -11.533 -7.02854 -3.96047 -11.265 -7.37547 -4.2072 
-10.967 -7.72646 -4.41152 -10.6424 -8.08211 -4.56642 -10.2955 -8.44174 -4.63731 
-9.93451 -8.8012 -4.57396 -9.60369 -9.12356 -4.355 -9.36741 -9.35398 -3.98264 
-9.23461 -9.48862 -3.5062 -9.17709 -9.55772 -3.00265 -9.17016 -9.58713 -2.50188 
-9.19269 -9.59859 -2.00083 -9.23278 -9.60607 -1.49905 -9.28517 -9.61796 -0.998411 
-9.34558 -9.64225 -0.499662 -9.4104 -9.6867 -0.00275927 -9.47726 -9.75817 0.4909 
-9.54474 -9.86275 0.978691 -9.61191 -10.0054 1.45683 -9.67828 -10.19 1.92056 
-9.74375 -10.4181 2.36481 -9.80862 -10.689 2.78431 -9.87316 -11.0002 3.17501 
-9.93757 -11.3474 3.53408 -10.0018 -11.7258 3.85996 -10.0655 -12.1307 4.15229 
-10.1276 -12.5576 4.41172 -10.1862 -13.0024 4.63991 -10.2391 -13.4615 4.83912 
-10.2831 -13.932 5.01225 -10.3148 -14.4112 5.16249 -10.3302 -14.8968 5.29337 
-10.325 -15.3866 5.40874 -10.2948 -15.878 5.51281 -10.2353 -16.3683 5.60993 
-10.1423 -16.8538 5.70459 -10.0129 -17.3306 5.80138 -9.84539 -17.7939 5.90499 
-9.6396 -18.2389 6.01969 -9.39747 -18.661 6.14927 -9.12226 -19.056 6.29688 
-8.81888 -19.4211 6.46489 -8.49259 -19.7542 6.65493 -8.14894 -20.0544 6.86769 
-7.79313 -20.3216 7.10322 -7.42978 -20.5563 7.36078 -7.06276 -20.7594 7.63902 
-6.69477 -20.9322 7.93577 -6.32774 -21.0762 8.24855 -5.96246 -21.193 8.57441 
-5.59912 -21.2842 8.91036 -5.23711 -21.3514 9.25332 -4.87543 -21.3961 9.60022 
-4.51252 -21.4196 9.94792 -4.14676 -21.4234 10.2934 -3.77647 -21.4089 10.6337 
-3.40019 -21.378 10.9662 -3.01684 -21.3328 11.2889 -2.62574 -21.2759 11.6002 
-2.22689 -21.2105 11.8998 -1.82065 -21.1402 12.188 -1.40796 -21.069 12.4667 
-0.98998 -21.0011 12.7383 -0.568222 -20.9407 13.0057 -0.144367 -20.8918 13.2723 
0.279569 -20.8585 13.5411 0.701274 -20.845 13.8153 1.11784 -20.8552 14.0974 
1.52596 -20.8931 14.3895 1.92161 -20.9631 14.6928 2.30027 -21.0691 15.0074 
2.65643 -21.2153 15.332 2.98424 -21.4052 15.6642 3.27732 -21.6412 15.9992 
3.5297 -21.9242 16.3314 3.73684 -22.252 16.6534 3.89557 -22.621 16.9578 
4.00614 -23.0253 17.238 4.07064 -23.458 17.4889 4.09493 -23.9099 17.7088 
4.08456 -24.3744 17.8968 4.04156 -24.8554 18.05 3.97023 -25.3502 18.1678 
3.88506 -25.8263 18.2578 3.79228 -26.2763 18.3235 3.65819 -26.8141 18.3465 
3.48077 -27.4491 18.3211 3.38762 -27.7704 18.2987 
LINES 1 129
128 0 1 2 3 4 5 6 7 8 9 10 11 12 13 14 15 16 17 18 19 20 21 22 23 24 25 26 27 28 29 30 31 32 33 34 35 36 37 38 39 40 41 42 43 44 45 46 47 48 49 50 51 52 53 54 55 56 57 58 59 60 61 62 63 64 65 66 67 68 69 70 71 72 73 74 75 76 77 78 79 80 81 82 83 84 85 86 87 88 89 90 91 92 93 94 95 96 97 98 99 100 101 102 103 104 105 106 107 108 109 110 111 112 113 114 115 116 117 118 119 120 121 122 123 124 125 126 127 

CELL_DATA 1
FIELD FieldData 2
Length 1 1 double
58.803636881 
Tortuosity 1 1 double
0.75904846015 
POINT_DATA 128
SCALARS MaximumInscribedSphereRadius float
LOOKUP_TABLE default
1.116 1.07872 1.04145 1.00266 0.963739 0.956059 0.948848 0.96115 0.97454 
0.966047 0.956035 0.971875 0.989968 1.09563 1.21054 1.27436 1.33176 1.31347 
1.28402 1.23204 1.17623 1.11672 1.05649 1.0684 1.09597 1.16158 1.23638 
1.19745 1.12815 1.07784 1.0331 1.07138 1.13632 1.18219 1.22139 1.23498 
1.23887 1.24688 1.25659 1.27429 1.29552 1.33543 1.38424 1.4366 1.49078 
1.45251 1.36427 1.43493 1.59022 1.684 1.7428 1.71693 1.63992 1.64124 
1.69342 1.76072 1.83855 1.92055 2.00568 2.03861 2.02994 1.94507 1.79545 
1.72254 1.71912 1.79416 1.94505 2.03238 2.05413 2.0272 1.94659 1.89319 
1.87189 1.85151 1.83232 1.76809 1.64308 1.51391 1.37877 1.28569 1.25754 
1.24728 1.2666 1.30919 1.393 1.45236 1.46526 1.44855 1.37124 1.35064 
1.45531 1.59963 1.8387 2.00967 2.0039 1.95465 1.7825 1.65833 1.68247 
1.7197 1.80131 1.86636 1.8694 1.87494 1.89088 1.91597 1.98365 2.04315 
2.0598 2.0436 1.8316 1.63298 1.52598 1.43614 1.48255 1.5257 1.53834 
1.55051 1.55727 1.56848 1.6429 1.71456 1.73719 1.75775 1.64207 1.52425 
1.38213 1.24 
TEXTURE_COORDINATES TCoords 2 float
0 0 0.00787402 0 0.015748 0 0.023622 0 0.0314961 
0 0.0393701 0 0.0472441 0 0.0551181 0 0.0629921 0 
0.0708661 0 0.0787402 0 0.0866142 0 0.0944882 0 0.102362 
0 0.110236 0 0.11811 0 0.125984 0 0.133858 0 
0.141732 0 0.149606 0 0.15748 0 0.165354 0 0.173228 
0 0.181102 0 0.188976 0 0.19685 0 0.204724 0 
0.212598 0 0.220472 0 0.228346 0 0.23622 0 0.244094 
0 0.251969 0 0.259843 0 0.267717 0 0.275591 0 
0.283465 0 0.291339 0 0.299213 0 0.307087 0 0.314961 
0 0.322835 0 0.330709 0 0.338583 0 0.346457 0 
0.354331 0 0.362205 0 0.370079 0 0.377953 0 0.385827 
0 0.393701 0 0.401575 0 0.409449 0 0.417323 0 
0.425197 0 0.433071 0 0.440945 0 0.448819 0 0.456693 
0 0.464567 0 0.472441 0 0.480315 0 0.488189 0 
0.496063 0 0.503937 0 0.511811 0 0.519685 0 0.527559 
0 0.535433 0 0.543307 0 0.551181 0 0.559055 0 
0.566929 0 0.574803 0 0.582677 0 0.590551 0 0.598425 
0 0.606299 0 0.614173 0 0.622047 0 0.629921 0 
0.637795 0 0.645669 0 0.653543 0 0.661417 0 0.669291 
0 0.677165 0 0.685039 0 0.692913 0 0.700787 0 
0.708661 0 0.716535 0 0.724409 0 0.732283 0 0.740157 
0 0.748031 0 0.755906 0 0.76378 0 0.771654 0 
0.779528 0 0.787402 0 0.795276 0 0.80315 0 0.811024 
0 0.818898 0 0.826772 0 0.834646 0 0.84252 0 
0.850394 0 0.858268 0 0.866142 0 0.874016 0 0.88189 
0 0.889764 0 0.897638 0 0.905512 0 0.913386 0 
0.92126 0 0.929134 0 0.937008 0 0.944882 0 0.952756 
0 0.96063 0 0.968504 0 0.976378 0 0.984252 0 
0.992126 0 1 0 
FIELD FieldData 7
Curvature 1 128 double
0 0.03517161083 0.066287328578 0.096401917586 0.12486131152 0.15075116176 0.1728990352 0.19002015559 0.20095977809 
0.2050408773 0.20231741187 0.19365639443 0.18059630118 0.16506965468 0.14911464782 0.13469069661 0.12349541226 0.1167361977 
0.11481498762 0.11718716483 0.12261516782 0.12968136056 0.13718077979 0.14429266487 0.15061762371 0.15611538011 0.16100471045 
0.16561549448 0.1702817434 0.17512933342 0.18018156771 0.18526769358 0.19017930324 0.19486020404 0.19956293762 0.20493142623 
0.21224371771 0.22336105486 0.24077279762 0.26756565448 0.30724481141 0.36292327081 0.43528244652 0.51803952067 0.59244783927 
0.62895956323 0.60531153123 0.52717144615 0.42303843746 0.32052665548 0.23373729429 0.16593474162 0.11637149703 0.085304216766 
0.074870754022 0.082185237358 0.098239482714 0.11628332909 0.13303378178 0.14686683034 0.15686600839 0.16262166505 0.16410032233 
0.16168118126 0.15596927949 0.1478061441 0.13808966219 0.12784599459 0.11806890247 0.10983441213 0.10413674347 0.10175850947 
0.10300602432 0.10754850194 0.11458421163 0.12308970198 0.13201921457 0.14048673347 0.14775668026 0.15334146569 0.15689663165 
0.15828210224 0.15755742003 0.15483792992 0.15032247007 0.14430396319 0.13706782347 0.12884666495 0.11997453723 0.11078636417 
0.10145162959 0.092256919 0.083296097933 0.074678548407 0.066307344858 0.058035810148 0.049640498286 0.040973082685 0.032062438954 
0.023690365147 0.018796397382 0.022409066856 0.033428561875 0.048086793103 0.064828771821 0.082962372784 0.10221754939 0.12224410989 
0.14269392152 0.16308069277 0.18279050926 0.20090762497 0.21646821197 0.22843003237 0.23586560789 0.23814430655 0.23511773296 
0.22699026658 0.21438398814 0.19801240263 0.17859483309 0.15673625757 0.13292339731 0.10751134528 0.080862161769 0.053301713735 
0.025196954956 0 
Torsion 1 128 double
0 0 -0.016289361749 -0.022582534066 -0.029379902112 -0.036725354931 -0.044844106088 -0.054122259711 -0.065152315565 
-0.078801722095 -0.096280125642 -0.11913214794 -0.14915117358 -0.18792123978 -0.2353651148 -0.28688490939 -0.32996495629 -0.3454848789 
-0.32015896545 -0.25920166053 -0.18096012736 -0.10191003441 -0.030248830676 0.031959137564 0.084976036058 0.12918250252 0.1645074216 
0.19077679661 0.2078177814 0.21674884653 0.21969571656 0.21941198208 0.21903838052 0.22112878319 0.22733169002 0.23804935907 
0.25176941102 0.26526680089 0.27405583708 0.27353595822 0.26183745481 0.240462396 0.21318180843 0.18493328238 0.16050250432 
0.14322867722 0.13531837649 0.13847727237 0.15493661561 0.19095088579 0.26013940722 0.38965238944 0.62462225958 0.94723570273 
1.0227662681 0.71012914333 0.41307366814 0.24135209397 0.14878904744 0.098499575622 0.072366828173 0.061766305753 0.062631871687 
0.073273907292 0.09331793605 0.12264907534 0.16216503745 0.21222010807 0.27062285747 0.33164581635 0.38349345618 0.411250518 
0.40666051705 0.37548687056 0.33186596426 0.28769531044 0.24928093802 0.21784179556 0.19244585459 0.17136886899 0.15275323649 
0.13501324095 0.1167878824 0.097282531686 0.075757400955 0.051882170206 0.025574203714 -0.0030876441402 -0.033862278816 -0.06643856004 
-0.099850562532 -0.13287608371 -0.16463123368 -0.19403659569 -0.22180791409 -0.25114083895 -0.29175472083 -0.36593012191 -0.53070367193 
-0.92696915494 -1.5231137867 -1.1820970012 -0.60349790303 -0.33034682893 -0.20060528815 -0.12898009603 -0.083712406782 -0.051918707944 
-0.027919364925 -0.0087231631942 0.0072831649766 0.020711239089 0.032357556685 0.042392585158 0.050931823311 0.058228872403 0.06371430975 
0.067269564497 0.068780989795 0.06784885448 0.064542473776 0.059000255776 0.051334201884 0.042217482702 0.032579682822 0.022887331222 
0 0 
Abscissas 1 128 double
0 0.50302361723 1.0060472345 1.5090686374 2.0120898465 2.5151167604 3.0181437598 3.5211666929 4.0241893994 
4.527210996 5.0302325155 5.5332592584 6.0362864567 6.5393103255 7.0423338424 7.5453556621 8.0483772684 8.5514029649 
9.0544292639 9.557452559 10.060475344 10.563497927 11.066520471 11.569550305 12.072581722 12.575600825 13.078616953 
13.581645738 14.084677903 14.587699738 15.090718541 15.5937411 16.096764865 16.599787709 17.102810233 17.605828182 
18.108844398 18.61187307 19.114906841 19.6179312 20.120951403 20.623968206 21.126983391 21.630021091 22.133070271 
22.636096431 23.139110145 23.642130334 24.145153972 24.648176563 25.151198559 25.654224166 26.157251956 26.660275731 
27.163296898 27.666319192 28.169342272 28.672365538 29.175388944 29.67841308 30.181437799 30.684471673 31.187513327 
31.690533388 32.193533891 32.696547318 33.199573237 33.702600497 34.205629141 34.708660689 35.211695439 35.714717113 
36.217723369 36.720731427 37.223741761 37.72676944 38.229820536 38.732851389 39.235853027 39.738870599 40.241912771 
40.744940227 41.247943381 41.750961434 42.254005862 42.757039745 43.260053583 43.763068231 44.266084536 44.76910416 
45.27213111 45.775158819 46.278188342 46.781214809 47.284233347 47.787252749 48.290274597 48.793300452 49.296338694 
49.799373198 50.302395021 50.805414835 51.308427126 51.811440149 52.314456223 52.817478044 53.320526642 53.823571274 
54.326595094 54.82961649 55.332623428 55.835629696 56.338631378 56.841639665 57.344700424 57.847757935 58.350785169 
58.853810267 59.356811386 59.859813586 60.362831137 60.865849975 61.368891726 61.871933475 62.374975127 62.878013621 
63.381015997 63.884018374 
ParallelTransportNormals 3 128 double
0.031946816076 0 0.9994895702 0.053568708402 -0.01648106777 0.99802697341 0.075190600727 -0.03296213554 0.99656437662 
0.099133072923 -0.046870547374 0.99360362056 0.12327865037 -0.060553791377 0.99051174037 0.15293948864 -0.071068923268 0.98513811368 
0.18268299543 -0.08153656816 0.97973028578 0.21138843905 -0.085035480458 0.97324358275 0.24003602015 -0.088145949755 0.96669674231 
0.26091492446 -0.085541877066 0.96132762955 0.2812543501 -0.082540970576 0.95604030151 0.28906354036 -0.079810282379 0.95394780779 
0.29578047783 -0.077103148942 0.95213380578 0.29104621034 -0.080241638699 0.9533107686 0.28510153105 -0.083998020754 0.95480388148 
0.26932102364 -0.096582544548 0.95793974037 0.2523031742 -0.11027764395 0.96128225584 0.22466215851 -0.13492278828 0.9642482559 
0.19545655005 -0.16118066847 0.96715880232 0.1535466816 -0.19937914627 0.96598751487 0.10947939124 -0.23960536176 0.96412305538 
0.054565861357 -0.28807678385 0.95298710648 -0.002443223519 -0.33814122662 0.94005985324 -0.060830398154 -0.38816197764 0.91602875273 
-0.11951673019 -0.438173244 0.88958721554 -0.17089695352 -0.48339818205 0.8553067455 -0.22051264573 -0.52746715245 0.81913305958 
-0.25810149166 -0.56513466853 0.78113771657 -0.29247876152 -0.60109277909 0.74265592929 -0.31473972342 -0.63065051074 0.70785119521 
-0.33344488207 -0.65832990715 0.67412557514 -0.34312648115 -0.68019498887 0.64697484734 -0.34991141355 -0.70019360854 0.62193473577 
-0.35169265901 -0.71461530448 0.60438362214 -0.35172583743 -0.72708866978 0.58944883338 -0.35079252931 -0.73365951756 0.5819350751 
-0.3494932247 -0.73799515497 0.57723156927 -0.35113090525 -0.73560342767 0.57925940636 -0.35397084973 -0.73045783292 0.5840427394 
-0.36477921587 -0.71563790702 0.59506442924 -0.37910633134 -0.6965459248 0.60884089471 -0.41243705648 -0.65836078897 0.62646682112 
-0.45481532235 -0.61108548092 0.64592546013 -0.54756329978 -0.51563730624 0.63913457928 -0.66599368045 -0.39562685103 0.61895964812 
-0.78782693813 -0.27423270831 0.50314112672 -0.91149995106 -0.1520904791 0.33561318509 -0.96852032897 -0.093734228365 0.19586086975 
-0.99003903977 -0.069352757073 0.070902883803 -0.99711465244 -0.059084843899 -0.0064818445675 -0.99597906885 -0.05684077677 -0.056820204379 
-0.99421306878 -0.055550219941 -0.089577610601 -0.99206634713 -0.054835507735 -0.11171751473 -0.99044684528 -0.053978634288 -0.12654037248 
-0.98916978896 -0.053029422727 -0.13661058273 -0.98814343865 -0.051849845813 -0.14439451622 -0.98729176859 -0.050509761074 -0.15058547879 
-0.98633880267 -0.048310347077 -0.15732776156 -0.98531026211 -0.045469806329 -0.16448137228 -0.98401817324 -0.040770885224 -0.17302450858 
-0.98251602701 -0.034590768998 -0.18267514611 -0.98086634091 -0.026633946364 -0.19245727983 -0.97909125832 -0.017167072455 -0.20235117427 
-0.97745646866 -0.0076226544845 -0.21073241329 -0.97594875203 0.0019920005239 -0.21774353532 -0.97498258165 0.0084629233162 -0.22209398068 
-0.97453986575 0.011895138474 -0.22387263621 -0.97473054149 0.0089455671665 -0.22302949532 -0.97557483031 -0.00058953336531 -0.21948085544 
-0.97634101893 -0.018747512536 -0.21401717771 -0.97702108496 -0.046414105644 -0.20644175097 -0.97581879466 -0.083652281974 -0.19750668149 
-0.97239703497 -0.13217622591 -0.18696846948 -0.96448457141 -0.18897851073 -0.17507533644 -0.9509059102 -0.25622608815 -0.16147261605 
-0.9309280251 -0.32754243132 -0.14602645358 -0.90231017903 -0.40435224962 -0.12809135372 -0.86809562266 -0.4793412333 -0.10802565629 
-0.82580433719 -0.55170253267 -0.084885249179 -0.78118347178 -0.61813242811 -0.060111010365 -0.73296645144 -0.67540606017 -0.032814637911 
-0.68564354933 -0.72600581093 -0.0049104897933 -0.63979715434 -0.76558461058 0.023997312055 -0.5962391439 -0.79995526187 0.05271497023 
-0.55673273988 -0.82510483743 0.081095977239 -0.51936085987 -0.84686531973 0.10902410935 -0.48604576754 -0.86218463213 0.13609152623 
-0.45405982903 -0.87544693386 0.1628588054 -0.42479317173 -0.884500851 0.18901204065 -0.3960298195 -0.89224025685 0.21514475559 
-0.36837795953 -0.89707671332 0.24123215374 -0.34065920011 -0.90093637823 0.2674213653 -0.31278053928 -0.90246133982 0.29385392879 
-0.28483953826 -0.90319729618 0.32000842795 -0.25673678426 -0.90188603471 0.34544143856 -0.22931489496 -0.90011017448 0.36974242293 
-0.20381758197 -0.89702104924 0.39084354853 -0.18030504351 -0.89400056289 0.40993525523 -0.16292650699 -0.89119220696 0.42281679587 
-0.14877232813 -0.88890280761 0.43325785526 -0.14555804419 -0.8883741715 0.43541862722 -0.14602911726 -0.88834759358 0.43520522429 
-0.16030708325 -0.89020193617 0.42609716658 -0.17803976027 -0.89206188824 0.41474141535 -0.21015732659 -0.89394519732 0.39402661153 
-0.24520096074 -0.89504081001 0.37098955341 -0.29387817401 -0.89246626815 0.33713229583 -0.34475170939 -0.88811197652 0.30076962531 
-0.40715068386 -0.87441825446 0.25125952799 -0.47069356293 -0.85784963876 0.19924865843 -0.54105772354 -0.82413758392 0.13232529403 
-0.61094968683 -0.78685828544 0.063696594623 -0.67760873845 -0.72515575799 -0.016607726601 -0.74217785008 -0.66052455095 -0.096875010045 
-0.79014572596 -0.57262966152 -0.17684808748 -0.83559986371 -0.48381598702 -0.2551638214 -0.85761676368 -0.38643587354 -0.31802704931 
-0.87801173413 -0.28985091213 -0.37897320299 -0.88018826573 -0.2021975529 -0.41838568402 -0.88169293189 -0.11537512246 -0.45663465064 
-0.87366936081 -0.040336728561 -0.47838293008 -0.86550620888 0.033633288351 -0.49942870672 -0.85485956701 0.088594224283 -0.50797521317 
-0.84415128391 0.1436010262 -0.51641513535 -0.82937267903 0.20163647159 -0.51781703709 -0.81578224124 0.25500599574 -0.51910622903 
-0.81578224124 0.25500599574 -0.51910622903 -0.81578224124 0.25500599574 -0.51910622903 
FrenetTangent 3 128 double
-0.87046150777 0.48105247244 0.10433255602 -0.87046150777 0.48105247244 0.10433255602 -0.88093074272 0.45999123328 0.11121641894 
-0.89657395107 0.42582342118 0.12177669829 -0.91561469751 0.37864535514 0.13519401145 -0.93578858854 0.31888677913 0.15036934413 
-0.95455396063 0.24755115226 0.16596735598 -0.96939533554 0.16640835059 0.1805019232 -0.97819410084 0.078054015406 0.19246784605 
-0.97959002684 -0.014233526292 0.20050133679 -0.97322194577 -0.10684328522 0.20352777862 -0.95975425504 -0.19629537939 0.20084793741 
-0.94067299394 -0.27967452414 0.19213661549 -0.91792509749 -0.354903322 0.17736162897 -0.89352176867 -0.42080392567 0.15666175365 
-0.86920673684 -0.47698961913 0.13023268354 -0.84623905451 -0.52366596084 0.09825184011 -0.82529127694 -0.56141850355 0.060856980604 
-0.80643499862 -0.59104333772 0.018175971606 -0.78918847593 -0.61343680445 -0.029611423468 -0.77260827257 -0.62953987178 -0.082194932873 
-0.75541159779 -0.64032505873 -0.139058035 -0.73612122172 -0.64680253454 -0.19942925624 -0.71322131747 -0.65002248187 -0.26227109138 
-0.68530231109 -0.65106190712 -0.32631140881 -0.65117806599 -0.65098606447 -0.3901080238 -0.60996580737 -0.65078630212 -0.45212708701 
-0.56112723671 -0.65130987557 -0.51081471221 -0.50447457999 -0.6532022751 -0.56465226994 -0.44017698431 -0.65686501327 -0.61218671729 
-0.36875461239 -0.66245426539 -0.65205397177 -0.29106189899 -0.66991671083 -0.68300407869 -0.20827763203 -0.67904974601 -0.70392604047 
-0.12184662286 -0.68958930379 -0.71387673487 -0.033376659449 -0.70129557175 -0.71208884253 0.055480141935 -0.71401486441 -0.6979288841 
0.14316601837 -0.72769876896 -0.67078908223 0.22832145258 -0.74235481291 -0.62990367998 0.30977623901 -0.75791724673 -0.57410811599 
0.38639906678 -0.77401992663 -0.5015863977 0.4567626664 -0.78962640732 -0.40970477596 0.51854972158 -0.80249566609 -0.29513876763 
0.5677546299 -0.80852775352 -0.15471765257 0.59806692682 -0.80135065524 0.012372485322 0.60148798345 -0.77322907854 0.20082081034 
0.571663797 -0.71862988264 0.39594392908 0.50924199609 -0.63939228229 0.57606431825 0.42407352068 -0.54628242694 0.7223137539 
0.33053669789 -0.45378906197 0.82753911001 0.24065801613 -0.37331688021 0.89594543708 0.16109170607 -0.31070737865 0.93675524396 
0.094020462924 -0.2675265565 0.95895239408 0.039132239195 -0.24314536149 0.96920018626 -0.0049120929389 -0.23612302038 0.97171075459 
-0.03970142245 -0.2448164377 0.96875626908 -0.066743070973 -0.26753991961 0.96123241409 -0.087342054458 -0.30251408918 0.94913465397 
-0.10258089473 -0.34777253921 0.93195033183 -0.11332360588 -0.40109113385 0.90900146463 -0.12022733341 -0.46000519153 0.87973894541 
-0.12376226175 -0.52190942662 0.84397479404 -0.12422259155 -0.58423203026 0.80202349253 -0.12173870493 -0.64463712864 0.7547335027 
-0.11629432844 -0.7012065353 0.70340957061 -0.10774389626 -0.75254759296 0.64966404637 -0.095834679977 -0.79781176354 0.59524121503 
-0.080250603541 -0.83663319667 0.54185305652 -0.060634379482 -0.86901402793 0.49105813433 -0.036622768309 -0.89518186836 0.44419387142 
-0.0079051631634 -0.91545172695 0.402350151 0.02573956282 -0.93011181188 0.36637343285 0.064394281539 -0.93933841389 0.33689274361 
0.10795564697 -0.94315165044 0.31434144265 0.15608219169 -0.94140900787 0.29897730573 0.20816015234 -0.93383728693 0.29089048201 
0.26329370983 -0.92009483813 0.29000329516 0.32031321785 -0.89986149391 0.29605528918 0.37782583033 -0.8729363646 0.30859317118 
0.43430842064 -0.83932786826 0.32696318648 0.48823237266 -0.79931488534 0.35032108752 0.53819858352 -0.75346689346 0.37766377262 
0.5830596328 -0.7026269048 0.40786872552 0.62202833307 -0.647837958 0.43975758439 0.65472630707 -0.59025744866 0.47215421965 
0.68117811552 -0.53107440558 0.50394082062 0.70177832049 -0.47141863476 0.53410828461 0.71721591145 -0.41229615233 0.56179464143 
0.72837547895 -0.35457482959 0.58629843244 0.73624373185 -0.29896898176 0.60709366267 0.74182020796 -0.2460255977 0.62383826777 
0.74603590117 -0.19617932555 0.63635218738 0.74968883081 -0.14978464838 0.64461710811 0.75340231517 -0.10714420404 0.64877197153 
0.75760692398 -0.06854361811 0.64910208839 0.76253632024 -0.03427380789 0.64603689245 0.76824139537 -0.0046566784741 0.64014332284 
0.77461438895 0.019960413361 0.63211876284 0.78142589677 0.039213260514 0.62276471324 0.78835730508 0.052733879934 0.61295342192 
0.79502842401 0.060162221128 0.60358123907 0.8010155467 0.061160410701 0.59551112341 0.80585625943 0.055417075409 0.5895122025 
0.80904399489 0.042647326088 0.58619878873 0.81001202063 0.022598946324 0.58597765663 0.80811856877 -0.0049527781652 0.58899902274 
0.80262994134 -0.04017644267 0.59512270224 0.79271652392 -0.083159767794 0.60389151818 0.7774636735 -0.13386003736 0.61451747476 
0.75591580139 -0.19201227891 0.62587745283 0.727147522 -0.25704705262 0.63654009614 0.69037159206 -0.32800234986 0.64482673902 
0.64509369773 -0.40343899493 0.64891532462 0.59127187486 -0.48141968565 0.64701828125 0.52945827174 -0.5595991694 0.63759133313 
0.46087751315 -0.63539591842 0.61956754654 0.3873950029 -0.706258985 0.59255662838 0.31135586844 -0.76998532921 0.55693816173 
0.23532075784 -0.82496757878 0.51386052085 0.16178219725 -0.87034635177 0.46510616918 0.092921498315 -0.90603118678 0.41288386229 
0.030462039385 -0.93259858493 0.35962750666 -0.024377959958 -0.95113723068 0.307804619 -0.070853819681 -0.96306823257 0.25976781104 
-0.10861151274 -0.96996462324 0.21765148507 -0.13757434088 -0.97338772517 0.18327475879 -0.15782889309 -0.97473230785 0.15807266856 
-0.16952459626 -0.97508780508 0.14305657502 -0.16952459626 -0.97508780508 0.14305657502 
FrenetNormal 3 128 double
-0.43708490462 -0.85285503728 0.28564851046 -0.43708490462 -0.85285503728 0.28564851046 -0.4168751588 -0.86550253483 0.27770571506 
-0.38413144049 -0.88450499541 0.26475261948 -0.33906902044 -0.90790726302 0.24644796841 -0.28227320501 -0.93320454051 0.22237608527 
-0.21491826768 -0.95754374728 0.19214606492 -0.13894823627 -0.97802563085 0.155432471 -0.057129005676 -0.99206747186 0.1119750329 
0.027080382692 -0.99774104006 0.061477393013 0.10982677847 -0.99394496951 0.0033876711151 0.18722734898 -0.98026967221 -0.063382091623 
0.25564236225 -0.9564825289 -0.14067037547 0.31170829627 -0.92166263784 -0.23103229223 0.35214942821 -0.87318679027 -0.33695045558 
0.37373390311 -0.80624941537 -0.45856826088 0.37418518262 -0.71539287987 -0.5900834488 0.35499272543 -0.59959356865 -0.71726404993 
0.32440696236 -0.46791032625 -0.82208275092 0.29587035372 -0.33750203997 -0.89361798706 0.2816608523 -0.22385012712 -0.93303712942 
0.28839498955 -0.13434480177 -0.9480399803 0.31726766363 -0.069464097624 -0.94578854336 0.36630856334 -0.026641534406 -0.93011196373 
0.43201118996 -0.0027181837313 -0.90186414899 0.50996816187 0.0053483964222 -0.86017664961 0.59506386829 0.00060859155331 -0.80367818328 
0.68173927732 -0.013661765655 -0.73146764379 0.76449768109 -0.033964083194 -0.64373110587 0.8384144545 -0.056623789371 -0.54208389476 
0.89987976827 -0.078667594893 -0.4289846293 0.94656289695 -0.097978065368 -0.30727671703 0.97717159997 -0.11363303361 -0.17950821117 
0.99090911701 -0.1258416194 -0.047571090506 0.98694851109 -0.13543426938 0.08712172601 0.96411906766 -0.14343724216 0.22338348403 
0.92097144273 -0.15020700275 0.35951280644 0.8562577905 -0.15480310287 0.4928068542 0.76983720524 -0.15443955874 0.61927304165 
0.66336768441 -0.14461318517 0.73418685765 0.54033030596 -0.1196060801 0.83290908631 0.40415547029 -0.074140689217 0.9116805987 
0.25710849114 -0.0043787832651 0.96637262484 0.10038453326 0.090217616899 0.99085000231 -0.0631505318 0.20457069547 0.97681259251 
-0.22589782912 0.32606882871 0.91795930723 -0.37579927928 0.43696733856 0.81721138436 -0.50293332359 0.5212287278 0.68947711009 
-0.60556733971 0.57056202163 0.55474965214 -0.69047061376 0.58289903527 0.42834454147 -0.76956299251 0.55471430359 0.31633027354 
-0.85478244731 0.47212148935 0.21551860026 -0.94821346712 0.29693813074 0.11277839903 -0.99946836152 -0.030161122051 -0.012381479428 
-0.87475806395 -0.46006510072 -0.15211322312 -0.60623948421 -0.75428893517 -0.25203549365 -0.37902252642 -0.871026474 -0.3124976897 
-0.23161237943 -0.90279155299 -0.36238531641 -0.13750412584 -0.89975978629 -0.4141556982 -0.07364012834 -0.87959305596 -0.4699927525 
-0.026204397524 -0.84849808262 -0.52854927238 0.013469257601 -0.80920253468 -0.58737537994 0.05107886969 -0.76345043371 -0.64384344708 
0.091180308025 -0.71276164087 -0.69545452385 0.13776064879 -0.65846525599 -0.7398956077 0.19487687868 -0.60145941122 -0.77477066207 
0.26604973782 -0.54186345325 -0.79724621983 0.35516768526 -0.47854969605 -0.80302310288 0.46356577837 -0.40899331671 -0.78602241445 
0.58830574336 -0.329618354 -0.7384091637 0.71884930937 -0.23746327325 -0.65335049114 0.83702292492 -0.13297741929 -0.53076325148 
0.9239062833 -0.021566884028 -0.38201053545 0.96998769348 0.088951038244 -0.22629977309 0.97790148639 0.19278993452 -0.080874743031 
0.95657268081 0.28797167055 0.045177685818 0.91491954494 0.37489071763 0.1495967116 0.85930602903 0.45470727899 0.23416754453 
0.79388568981 0.52816829798 0.30130343595 0.72133548662 0.59555161394 0.35354404375 0.64385630715 0.65671459169 0.39265124577 
0.56352350709 0.71140017507 0.41994171961 0.48259421809 0.75948064352 0.43622468155 0.40342095209 0.80112399661 0.44209939773 
0.32837572497 0.83683869547 0.43803011428 0.25984454154 0.86746998436 0.42423653835 0.19985708917 0.89402503938 0.40096929169 
0.15029302762 0.91752749154 0.36817836454 0.11254821464 0.93871923648 0.32578995448 0.087782274604 0.95789128563 0.27338353494 
0.076711239246 0.97457600733 0.21051601295 0.079391597809 0.98737116719 0.13709541346 0.095440035795 0.99400573767 0.053327226157 
0.12381586407 0.99150622903 -0.039812430224 0.16310562102 0.9765228298 -0.14071147524 0.21212406637 0.94533089477 -0.24769513491 
0.27076850946 0.89279646937 -0.35999844246 0.34203251351 0.80782283659 -0.48003752394 0.4326086356 0.66087811316 -0.61326167983 
0.54571720134 0.36346682963 -0.75503946911 0.59039942536 -0.24523083489 -0.76895406635 0.37074819557 -0.823508407 -0.42939454943 
0.13271972072 -0.98485946389 -0.11152269776 -0.013924725515 -0.99823415525 0.057746630374 -0.11139114832 -0.98320570477 0.14456332239 
-0.18649188477 -0.96461226052 0.1863973277 -0.2513385775 -0.94711527737 0.19950331031 -0.31186362237 -0.93055498282 0.19185542731 
-0.37062230039 -0.913582683 0.16734931064 -0.42873027684 -0.89422536866 0.12865201033 -0.48593799012 -0.87055603031 0.077436863621 
-0.54133020306 -0.84066742515 0.015488432666 -0.59339008798 -0.80301806858 -0.055228480149 -0.64011944827 -0.75674273422 -0.1326179707 
-0.67962500938 -0.70164528264 -0.21401809263 -0.71011540636 -0.63849156339 -0.2967568586 -0.73036447917 -0.56884287032 -0.37813425718 
-0.74014127941 -0.49478152823 -0.45539227688 -0.73980194333 -0.41888638573 -0.52652377012 -0.73072268765 -0.34372925855 -0.58982586462 
-0.71482956061 -0.27180804707 -0.64431287806 -0.69450977275 -0.20535170411 -0.68955554756 -0.67227085613 -0.14628526838 -0.72570828592 
-0.65079822336 -0.096125270839 -0.7531411586 -0.63198448537 -0.056211414383 -0.77293976941 -0.61775885883 -0.027420282144 -0.78588938183 
-0.60888612227 -0.010511447468 -0.79318799762 -0.60888612227 -0.010511447468 -0.79318799762 
FrenetBinormal 3 128 double
0.22639246816 0.20304384782 0.9526382557 0.22639246816 0.20304384782 0.9526382557 0.22400028686 0.19827613951 0.95420670925 
0.22044996416 0.19059204357 0.95659630264 0.21606000343 0.17981128102 0.95968014366 0.21123814828 0.16565176626 0.96329535297 
0.20648698375 0.14774437065 0.96723044125 0.20240076843 0.1255950885 0.9712156314 0.19968119039 0.098537819956 0.97489369689 
0.19917337221 0.065652294002 0.97776262155 0.2019334618 0.02564975613 0.97906331104 0.20932675349 -0.023227005261 0.97756985249 
0.2231172362 -0.083206564992 0.97123394013 0.24546171481 -0.15678524818 0.95664357653 0.27858504829 -0.24590422006 0.92839726703 
0.32373232507 -0.34991825253 0.87906461552 0.37929528304 -0.46258727706 0.80134143745 0.43917476374 -0.57034797826 0.6941388266 
0.49439125779 -0.65705989036 0.56907783712 0.53818424656 -0.71399415961 0.44785048487 0.56898472865 -0.74402329965 0.35026519688 
0.58837203191 -0.75626403683 0.28615215997 0.59788525366 -0.75948747222 0.25634352537 0.59760638277 -0.75944782685 0.25711011174 