# vtk DataFile Version 4.2
vtk output
ASCII
DATASET POLYDATA
POINTS 128 float
0 0 0 -0.328239 -0.0547434 0.0307218 -0.972705 -0.173348 0.102606 
-1.50693 -0.298861 0.189255 -1.93962 -0.433896 0.285151 -2.39052 -0.596759 0.390532 
-2.85291 -0.790529 0.501395 -3.29327 -1.01424 0.612859 -3.71116 -1.26707 0.721257 
-4.11451 -1.54771 0.823707 -4.50391 -1.85225 0.919458 -4.8784 -2.17603 1.0085 
-5.24047 -2.51463 1.09122 -5.59367 -2.86393 1.16786 -5.94086 -3.22087 1.23707 
-6.28455 -3.58294 1.29647 -6.62646 -3.94876 1.34086 -6.96763 -4.31746 1.36359 
-7.30672 -4.68878 1.35513 -7.64056 -5.06251 1.30475 -7.96001 -5.43742 1.20111 
-8.25325 -5.81167 1.03423 -8.5068 -6.18248 0.805388 -8.7075 -6.54691 0.521461 
-8.85008 -6.90418 0.19569 -8.93329 -7.2545 -0.156369 -8.95979 -7.59871 -0.522848 
-8.93406 -7.93786 -0.893939 -8.86096 -8.27233 -1.26268 -8.7452 -8.60226 -1.62369 
-8.5891 -8.92879 -1.97324 -8.39424 -9.25311 -2.30817 -8.16646 -9.57264 -2.62254 
-7.91143 -9.88432 -2.90903 -7.61062 -10.2005 -3.16092 -7.23872 -10.5361 -3.36287 
-6.84024 -10.8455 -3.40701 -6.49868 -11.0529 -3.15196 -6.27383 -11.1396 -2.67511 
-6.19999 -11.1251 -2.16496 -6.22856 -11.0544 -1.66996 -6.28082 -10.9792 -1.17619 
-6.33643 -10.9153 -0.680488 -6.40259 -10.8614 -0.184904 -6.47534 -10.8246 0.311123 
-6.54505 -10.8166 0.809179 -6.60467 -10.8499 1.30766 -6.64851 -10.9377 1.80246 
-6.66996 -11.0916 2.2819 -6.66251 -11.3209 2.73031 -6.62629 -11.6201 3.13535 
-6.56561 -11.9749 3.48773 -6.48709 -12.3704 3.7896 -6.39859 -12.7919 4.05013 
-6.30551 -13.2304 4.27793 -6.21162 -13.6806 4.48102 -6.11951 -14.1391 4.6656 
-6.03093 -14.6035 4.83659 -5.94661 -15.0721 4.99777 -5.86649 -15.5437 5.15211 
-5.7895 -16.0173 5.30191 -5.71375 -16.4919 5.44904 -5.63618 -16.9666 5.59503 
-5.55271 -17.4403 5.7412 -5.45806 -17.9114 5.88868 -5.34588 -18.3781 6.03847 
-5.20931 -18.8372 6.19143 -5.04108 -19.2847 6.34824 -4.83509 -19.7146 6.50929 
-4.58651 -20.1197 6.67469 -4.29395 -20.4928 6.84425 -3.95937 -20.8265 7.01755 
-3.58746 -21.1163 7.19425 -3.18543 -21.36 7.37411 -2.76041 -21.5579 7.55707 
-2.31927 -21.7125 7.74326 -1.86767 -21.8272 7.93278 -1.40993 -21.9062 8.1257 
-0.94939 -21.9534 8.32205 -0.488307 -21.9724 8.52177 -0.0283906 -21.9665 8.72483 
0.429265 -21.9388 8.93114 0.88385 -21.8921 9.14069 1.33487 -21.8288 9.35353 
1.78195 -21.7513 9.56989 2.22488 -21.6622 9.79028 2.6635 -21.564 10.0154 
3.09773 -21.4595 10.246 3.52755 -21.3516 10.4832 3.953 -21.2438 10.7283 
4.3741 -21.1399 10.9824 4.79084 -21.0441 11.2467 5.20307 -20.9609 11.5222 
5.61037 -20.8957 11.8098 6.01185 -20.8546 12.1098 6.40577 -20.8442 12.4224 
6.78943 -20.8716 12.7469 7.15859 -20.9443 13.0812 7.50811 -21.0682 13.4219 
7.83139 -21.2473 13.7638 8.12251 -21.4823 14.1011 8.37703 -21.7693 14.4275 
8.59234 -22.1026 14.7375 8.76908 -22.4741 15.0278 8.90912 -22.8763 15.2959 
9.01595 -23.3023 15.5415 9.09342 -23.7463 15.7647 9.14566 -24.204 15.9667 
9.17662 -24.6717 16.1486 9.18982 -25.1471 16.312 9.1885 -25.6281 16.4583 
9.17546 -26.1134 16.589 9.15327 -26.6019 16.7053 9.12423 -27.093 16.8087 
9.0905 -27.5862 16.9003 9.05406 -28.0809 16.9814 9.0168 -28.5768 17.0531 
8.98037 -29.0744 17.1167 8.94622 -29.5734 17.1734 8.9152 -30.0715 17.2241 
8.88791 -30.5684 17.27 8.86451 -31.0723 17.3133 8.84502 -31.584 17.3554 
8.82922 -32.0724 17.3942 8.81668 -32.533 17.4302 8.80619 -33.0869 17.4772 
8.79747 -33.7435 17.5375 8.79371 -34.0758 17.5689 
LINES 1 129
128 0 1 2 3 4 5 6 7 8 9 10 11 12 13 14 15 16 17 18 19 20 21 22 23 24 25 26 27 28 29 30 31 32 33 34 35 36 37 38 39 40 41 42 43 44 45 46 47 48 49 50 51 52 53 54 55 56 57 58 59 60 61 62 63 64 65 66 67 68 69 70 71 72 73 74 75 76 77 78 79 80 81 82 83 84 85 86 87 88 89 90 91 92 93 94 95 96 97 98 99 100 101 102 103 104 105 106 107 108 109 110 111 112 113 114 115 116 117 118 119 120 121 122 123 124 125 126 127 

CELL_DATA 1
FIELD FieldData 2
Length 1 1 double
58.653259906 
Tortuosity 1 1 double
0.49116302778 
POINT_DATA 128
SCALARS MaximumInscribedSphereRadius float
LOOKUP_TABLE default
0.93 0.93 0.93 0.93 0.93 0.93 0.93 0.941839 0.954373 
0.993525 1.03477 1.11947 1.2085 1.17769 1.13222 1.10104 1.07195 1.24224 
1.44656 1.53586 1.60265 1.5232 1.41155 1.15622 0.865954 0.846629 0.899908 
1.02883 1.1801 1.22575 1.23704 1.21847 1.18928 1.12736 1.05264 1.13793 
1.29182 1.47461 1.66993 1.62208 1.51308 1.41756 1.32618 1.3607 1.43833 
1.49185 1.53634 1.54951 1.54988 1.55 1.55 1.57968 1.62324 1.68774 
1.76281 1.77276 1.74707 1.68889 1.61148 1.61673 1.67492 1.73856 1.80595 
1.84191 1.85442 1.86 1.86 1.85568 1.84763 1.8104 1.7461 1.67592 
1.59991 1.55686 1.54877 1.52305 1.4773 1.41182 1.32228 1.27984 1.29923 
1.32843 1.37152 1.41553 1.46095 1.50056 1.53058 1.54985 1.54994 1.55 
1.55 1.55 1.55 1.55 1.55 1.56066 1.59794 1.65658 1.77347 
1.85294 1.8213 1.76923 1.65101 1.53935 1.4511 1.37587 1.35208 1.34692 
1.42423 1.50235 1.58457 1.66753 1.75473 1.83252 1.84707 1.85751 1.83507 
1.80743 1.72877 1.65496 1.64164 1.63335 1.70911 1.78255 1.75307 1.71884 
1.63442 1.55 
TEXTURE_COORDINATES TCoords 2 float
0 0 0.00787402 0 0.015748 0 0.023622 0 0.0314961 
0 0.0393701 0 0.0472441 0 0.0551181 0 0.0629921 0 
0.0708661 0 0.0787402 0 0.0866142 0 0.0944882 0 0.102362 
0 0.110236 0 0.11811 0 0.125984 0 0.133858 0 
0.141732 0 0.149606 0 0.15748 0 0.165354 0 0.173228 
0 0.181102 0 0.188976 0 0.19685 0 0.204724 0 
0.212598 0 0.220472 0 0.228346 0 0.23622 0 0.244094 
0 0.251969 0 0.259843 0 0.267717 0 0.275591 0 
0.283465 0 0.291339 0 0.299213 0 0.307087 0 0.314961 
0 0.322835 0 0.330709 0 0.338583 0 0.346457 0 
0.354331 0 0.362205 0 0.370079 0 0.377953 0 0.385827 
0 0.393701 0 0.401575 0 0.409449 0 0.417323 0 
0.425197 0 0.433071 0 0.440945 0 0.448819 0 0.456693 
0 0.464567 0 0.472441 0 0.480315 0 0.488189 0 
0.496063 0 0.503937 0 0.511811 0 0.519685 0 0.527559 
0 0.535433 0 0.543307 0 0.551181 0 0.559055 0 
0.566929 0 0.574803 0 0.582677 0 0.590551 0 0.598425 
0 0.606299 0 0.614173 0 0.622047 0 0.629921 0 
0.637795 0 0.645669 0 0.653543 0 0.661417 0 0.669291 
0 0.677165 0 0.685039 0 0.692913 0 0.700787 0 
0.708661 0 0.716535 0 0.724409 0 0.732283 0 0.740157 
0 0.748031 0 0.755906 0 0.76378 0 0.771654 0 
0.779528 0 0.787402 0 0.795276 0 0.80315 0 0.811024 
0 0.818898 0 0.826772 0 0.834646 0 0.84252 0 
0.850394 0 0.858268 0 0.866142 0 0.874016 0 0.88189 
0 0.889764 0 0.897638 0 0.905512 0 0.913386 0 
0.92126 0 0.929134 0 0.937008 0 0.944882 0 0.952756 
0 0.96063 0 0.968504 0 0.976378 0 0.984252 0 
0.992126 0 1 0 
FIELD FieldData 7
Curvature 1 128 double
0 0.020543528635 0.037920991953 0.053396341007 0.066314029263 0.076218121634 0.082922652882 0.086559029666 0.087619146002 
0.086976644788 0.085846314214 0.08568352078 0.087929628661 0.093681777315 0.10336607193 0.11679175841 0.13330590129 0.15195945047 
0.17153791491 0.19052114068 0.20719002448 0.21986724581 0.22734134705 0.22920917034 0.22617871698 0.21995605493 0.21299947504 
0.20832660945 0.2095130081 0.22095486153 0.2485534343 0.30083185164 0.39057183664 0.53429927657 0.74077491189 0.97002543256 
1.092716654 0.9952090957 0.74910852012 0.50156634738 0.3167357298 0.19296823135 0.11613571003 0.083630985352 0.093989044721 
0.12366602084 0.15593194844 0.18426766776 0.2049038964 0.21527043681 0.21447377617 0.20365712297 0.1854556164 0.16306470292 
0.13927918933 0.11610314589 0.094738713662 0.075875643759 0.060106619208 0.048552337747 0.043285203685 0.046048366334 0.055845953219 
0.070183928762 0.087123485364 0.10541512771 0.12403124558 0.14191794399 0.15794777253 0.17097906179 0.18003147831 0.18447229168 
0.18418712887 0.17951943429 0.17126847729 0.16039022063 0.14787746682 0.13451922677 0.12096678189 0.10760735148 0.094696545527 
0.082271278601 0.070423480492 0.059196046168 0.048854810233 0.040020027483 0.034213197833 0.033660017568 0.039431691741 0.050238975119 
0.064343060883 0.080766981054 0.098882020036 0.11827825095 0.13834966868 0.15844904276 0.17754993216 0.19449389694 0.20792415668 
0.21673486874 0.22011004989 0.21786904353 0.21048855912 0.19897501522 0.18455512768 0.16847363921 0.15179563167 0.13531243848 
0.11955257306 0.10479992189 0.091275126132 0.078977151529 0.067919288378 0.058052794207 0.049341454913 0.041707814437 0.035041366053 
0.029340032568 0.024500604458 0.020402293273 0.016925161648 0.013984096431 0.0113777739 0.0090115349119 0.0067158615843 0.0044272791221 
0.0020805619229 0 
Torsion 1 128 double
0 0 -0.038539703525 -0.052923803837 -0.068513966654 -0.085981242683 -0.10672141034 -0.13264749303 -0.1655999695 
-0.20578142774 -0.24880609764 -0.28274488366 -0.29043564103 -0.26195932299 -0.20468340485 -0.13629797029 -0.071481922599 -0.016415196283 
0.028175420263 0.064217201374 0.094332430608 0.12118661885 0.14710259351 0.17443318098 0.20556541447 0.2425067812 0.28641223444 
0.33604118559 0.38549319084 0.42324014344 0.43686851141 0.42164878751 0.38324996683 0.332424429 0.27881409798 0.23241021542 
0.20474429851 0.20201997594 0.22431258352 0.27711524172 0.38800540872 0.63685197843 1.1927414028 1.7103236609 1.0718179473 
0.50383326093 0.25570270052 0.14098818852 0.080194519224 0.044071227438 0.020734167657 0.0052331586144 -0.0041000404905 -0.0068588397036 
-0.00035358952528 0.020799921662 0.066584878503 0.15450700245 0.31038788013 0.54218024641 0.72444446564 0.64475945327 0.42480750335 
0.25416052138 0.15481076533 0.10091050748 0.07210707376 0.057378084308 0.050567074175 0.048293661849 0.04869045118 0.050758073886 
0.053796412902 0.057447718813 0.061538665186 0.066085718383 0.07134241101 0.077720845572 0.086058119658 0.097636509878 0.11485600017 
0.14175469464 0.18440711073 0.25507252868 0.3755250363 0.57186964143 0.81270520464 0.88463076161 0.68569236144 0.45260631117 
0.29729942872 0.20376378336 0.14685778487 0.11031941952 0.085965625105 0.069183572866 0.057282494006 0.048815671249 0.04300081346 
0.039111145157 0.036964994367 0.036309731731 0.036909478904 0.03887231539 0.042114985837 0.046720844668 0.052762802319 0.060311132606 
0.069456141391 0.080694124258 0.094000600243 0.10920247951 0.12720183065 0.14772550776 0.17002573889 0.19449000431 0.22043390951 
0.24520003225 0.26751424224 0.28280366974 0.28881403387 0.28136907882 0.25792090887 0.22055494011 0.17269841422 0.12398561482 
0 0 
Abscissas 1 128 double
0 0.50264927168 1.0052985434 1.5079448047 2.0105907821 2.5132398235 3.0158889346 3.5185375238 4.0211860823 
4.5238389443 5.0264921442 5.5291395038 6.0317862821 6.5344324202 7.03707848 7.5397282265 8.0423785111 8.5450266022 
9.0476743191 9.55032158 10.052968752 10.555618157 11.058268054 11.560917221 12.063566211 12.566214478 13.068862551 
13.571511441 14.074160572 14.576808548 15.079456149 15.582106521 16.084757879 16.587413705 17.09007128 17.592719032 
18.095362574 18.598011879 19.100663679 19.603316975 20.105970648 20.608614918 21.111256306 21.613905396 22.116557123 
22.619207624 23.121857666 23.624506862 24.127155711 24.629792981 25.132425168 25.635073545 26.137729499 26.640377629 
27.143021807 27.645677709 28.148340026 28.650979108 29.153604434 29.656244097 30.158892941 30.661557571 31.164233122 
31.666900882 32.169562829 32.672204267 33.174829214 33.677459103 34.180093265 34.682740806 35.185400759 35.68805106 
36.190691787 36.693341419 37.196000495 37.6986533 38.201298982 38.703945698 39.206593677 39.709241598 40.211889443 
40.714537171 41.217184735 41.719831799 42.222478101 42.725127818 43.227783164 43.730437114 44.23308857 44.735739432 
45.238389142 45.741037653 46.243683642 46.746331696 47.248984482 47.751630652 48.254260291 48.756893816 49.259537929 
49.762190557 50.264868473 50.76753016 51.270139287 51.772760974 52.275427393 52.778092241 53.280750878 53.7834028 
54.286024994 54.788653104 55.291310924 55.793970266 56.296638393 56.79930149 57.301930785 57.804562998 58.307218599 
58.809873659 59.312523406 59.815173927 60.317834076 60.820494667 61.323162653 61.825829344 62.328438821 62.831052719 
63.333713224 63.836373728 
ParallelTransportNormals 3 128 double
0.10630542074 0 0.99433352429 0.14372138433 0.0084576268069 0.98875705743 0.18113734791 0.016915253614 0.98318059057 
0.20101187889 0.023175362445 0.97913153569 0.21923158772 0.029228162015 0.97522657366 0.22470558739 0.031767390166 0.97389043191 
0.22988934647 0.034226608563 0.97261278638 0.22615987106 0.031753221396 0.97355852448 0.22190621954 0.028989753904 0.97463501697 
0.21616355813 0.024318814831 0.97602340067 0.21030394379 0.019498055123 0.97743628158 0.20359997677 0.013146186596 0.97891922591 
0.1968119675 0.0066419198726 0.98040914397 0.18365238676 -0.0069596918651 0.98275725856 0.16971392641 -0.021428903904 0.98521028161 
0.14082979295 -0.05246683777 0.9875852027 0.10976381684 -0.085923554918 0.98994872207 0.057237764194 -0.144667919 0.98420169084 
0.0010492284581 -0.20772799832 0.97707047283 -0.067836617216 -0.29360160693 0.94596310463 -0.13920855208 -0.38394202533 0.9101612895 
-0.19223731109 -0.4692535536 0.85440076742 -0.2412282573 -0.55345809162 0.79424681189 -0.26307946238 -0.61270879748 0.74153152861 
-0.27833231025 -0.66589259587 0.69062477461 -0.28098368703 -0.69884100606 0.6565746098 -0.28025826216 -0.72636696263 0.62704148573 
-0.27700967502 -0.74254173618 0.60953840835 -0.27301530791 -0.75536140048 0.59559109435 -0.27052122825 -0.76118692662 0.58939291608 
-0.26851530749 -0.76473672171 0.58571612763 -0.27258610886 -0.75995984597 0.58993034365 -0.27882216258 -0.75221601811 0.59695627552 
-0.32246101012 -0.71152242074 0.61900598114 -0.38074900912 -0.65792374021 0.64693988724 -0.5535084431 -0.53840871316 0.57066874345 
-0.77533173115 -0.39064113553 0.44973404353 -0.88065991614 -0.33644665083 0.27589196375 -0.93555344719 -0.32276310983 0.079144497192 
-0.94453396896 -0.32473393534 0.00050486019623 -0.94196730041 -0.33064185739 -0.048430481502 -0.93914187076 -0.33392181659 -0.077411300474 
-0.93623714299 -0.33639642868 -0.10027699605 -0.93422021103 -0.33717719766 -0.11569131668 -0.93250723804 -0.33737803732 -0.12855447372 
-0.93154459188 -0.33648971736 -0.13763094893 -0.93086283902 -0.33519365825 -0.14528983719 -0.93068716988 -0.33292364241 -0.15148468764 
-0.93071808505 -0.33025605564 -0.15708191515 -0.93135485655 -0.32544303573 -0.16309121374 -0.93225756193 -0.31968830191 -0.16928138632 
-0.93395869818 -0.31089187789 -0.17586033387 -0.93603349267 -0.30067197109 -0.18262122451 -0.93851700805 -0.28858828479 -0.18896994857 
-0.94120699721 -0.27556307193 -0.19511045822 -0.94382159873 -0.26226555066 -0.20057020883 -0.94639496357 -0.24881907795 -0.20565758744 
-0.94843194798 -0.2375543302 -0.20963235422 -0.95015139672 -0.22758115728 -0.21294845803 -0.95090451195 -0.22318790707 -0.214399437 
-0.95103872028 -0.22236842577 -0.21465586087 -0.94939352225 -0.23136183721 -0.2118637646 -0.94651727019 -0.24714414268 -0.20696259809 
-0.93962908629 -0.27669265861 -0.1975038423 -0.92974712097 -0.31651378804 -0.18464412491 -0.91125621632 -0.37088501148 -0.16597748805 
-0.88584301992 -0.43695570124 -0.14264161272 -0.84675478409 -0.51162537055 -0.11368131475 -0.7958368984 -0.59373362297 -0.079855586539 
-0.7322060319 -0.67229771621 -0.043150385923 -0.65677989484 -0.74757349201 -0.0037735729842 -0.57750188062 -0.81055642158 0.034693852044 
-0.49440374962 -0.8613478647 0.072259387455 -0.4156836342 -0.90024952445 0.10689066662 -0.34160598591 -0.92654320526 0.13841044746 
-0.2746669769 -0.94534864887 0.16684027047 -0.21583666016 -0.95564829627 0.1917602485 -0.1633067474 -0.9621558267 0.21423395576 
-0.11846203117 -0.96403775468 0.233723716 -0.078542437886 -0.96422968193 0.2513263307 -0.045086690648 -0.96220361287 0.26645221162 
-0.015519787695 -0.95961479535 0.28003521412 0.0085475975268 -0.95623015138 0.29143631205 0.028859603882 -0.95302762749 0.30121286585 
0.043440992695 -0.95010301444 0.30851040451 0.054072787588 -0.94791231436 0.31388575566 0.058190641659 -0.94693203384 0.31609090348 
0.057835834938 -0.94704357968 0.31576172699 0.049495843867 -0.94910439804 0.31090794026 0.036223688188 -0.95216299865 0.30271939735 
0.013400941644 -0.95715369415 0.28807346823 -0.014960671897 -0.9623499117 0.26892100757 -0.054978310535 -0.96797863108 0.24028497476 
-0.10089841615 -0.9718206689 0.20578301205 -0.16034259879 -0.97156895757 0.15784068825 -0.22453104772 -0.96612476515 0.10354547725 
-0.3005709437 -0.94770945961 0.033380392686 -0.37719538708 -0.92127772548 -0.040646181111 -0.45541303331 -0.87299695574 -0.12519736881 
-0.52917103024 -0.81833813997 -0.20846957305 -0.58968474851 -0.74473778574 -0.28794344878 -0.6443494716 -0.66959595913 -0.36289545105 
-0.68007120349 -0.58946180537 -0.42320257731 -0.71164039911 -0.51115832038 -0.47907236771 -0.72842022267 -0.43937481258 -0.51913846449 
-0.74301981497 -0.37040919928 -0.55610617134 -0.7490078677 -0.31257378594 -0.58083576933 -0.75406357757 -0.25723212946 -0.60372414576 
-0.75499175052 -0.212930482 -0.61846132554 -0.75559839945 -0.17054964334 -0.63216431283 -0.75459035102 -0.13781512879 -0.64067357338 
-0.75352743659 -0.10654296802 -0.6486095168 -0.75214818952 -0.083702080114 -0.653239972 -0.75081648664 -0.06200765141 -0.65755635408 
-0.74980440532 -0.048020433142 -0.65976134167 -0.74885542906 -0.034883382432 -0.66180816947 -0.74841199016 -0.028557059023 -0.6625879727 
-0.7480050854 -0.022739398162 -0.66330324133 -0.74795694191 -0.021916748475 -0.6633847871 -0.74792192604 -0.02137547709 -0.663441483 
-0.74805042749 -0.024339049131 -0.66318864936 -0.74817934101 -0.027396492311 -0.66292887836 -0.74831513716 -0.032021780396 -0.66255323886 
-0.74845101559 -0.036716346488 -0.66217099027 -0.74859053222 -0.044473973891 -0.66149652694 -0.74871796179 -0.051559516982 -0.66088049593 
-0.74871796179 -0.051559516982 -0.66088049593 -0.74871796179 -0.051559516982 -0.66088049593 
FrenetTangent 3 128 double
-0.93546415168 -0.31046921058 0.16886589414 -0.93546415168 -0.31046921058 0.16886589414 -0.93050966242 -0.32389494243 0.17100828757 
-0.9224385132 -0.34477398373 0.17389102769 -0.91125855051 -0.37195681219 0.17679361976 -0.89709486452 -0.40400539537 0.17888668079 
-0.88025061415 -0.43931782258 0.17932848926 -0.86122759987 -0.47627553055 0.17733764469 -0.8406940433 -0.51339218474 0.17222656652 
-0.81939928355 -0.54944287836 0.16339319918 -0.7980526842 -0.58354725645 0.15028144506 -0.77719046732 -0.61519384619 0.13233105877 
-0.75705454729 -0.64420539181 0.10893955016 -0.73749548639 -0.67066145838 0.079458264569 -0.7179157034 -0.69478614543 0.043234880951 
-0.6972532285 -0.71682483978 -0.00029053975318 -0.6740130389 -0.73692640614 -0.051438267194 -0.64636673541 -0.7550418424 -0.11009931688 
-0.61232400377 -0.77087560941 -0.1755280867 -0.57000175706 -0.78390069782 -0.24616598648 -0.51796750136 -0.79346455651 -0.31956793502 
-0.45558844344 -0.798982093 -0.3925134205 -0.38326998852 -0.80016951345 -0.46133812507 -0.30247553789 -0.79723222355 -0.52242638783 
-0.2154662031 -0.79093226382 -0.57271325231 -0.12482821885 -0.78250354462 -0.61000501509 -0.032974732047 -0.77344861573 -0.63300071554 
0.058241252177 -0.76530437862 -0.6410282089 0.14772621758 -0.7594442179 -0.63357828604 0.23514177892 -0.75693366704 -0.60972105713 
0.32072022666 -0.75838468162 -0.56744269393 0.40485985448 -0.76368662487 -0.50286304023 0.4872901313 -0.7713567402 -0.4093374003 
0.56523745911 -0.77705326141 -0.27693833926 0.62986835798 -0.77093929634 -0.094437561282 0.66227920357 -0.73588894498 0.1409032192 
0.63838159297 -0.65515798584 0.404025934 0.55278269739 -0.53395794978 0.63978136682 0.43307823961 -0.40431164432 0.80559005248 
0.31415901402 -0.29641175733 0.90191140586 0.21429761177 -0.22140711358 0.9513440091 0.13727632493 -0.17817268974 0.97437657158 
0.081068981234 -0.16226881122 0.98341072456 0.042525140141 -0.16961072463 0.98459322288 0.01884750804 -0.19705662603 0.98021092504 
0.0077729229173 -0.24197549667 0.97025122555 0.007353095436 -0.30159547673 0.95340762552 0.015669109203 -0.37245043717 0.92791979765 
0.030620893877 -0.4501518403 0.8924268494 0.049880805927 -0.52965137237 0.84674750011 0.071060627659 -0.60596847342 0.79230839729 
0.092020557605 -0.67508664409 0.73197693949 0.11117247654 -0.73455662026 0.66937825785 0.1276378292 -0.78356543921 0.60805738794 
0.14122800279 -0.82256129106 0.55086075706 0.15231838481 -0.85270784502 0.49968834355 0.16168724609 -0.87540944016 0.45553874317 
0.17037778078 -0.8919964818 0.4187047746 0.1795904888 -0.90356347911 0.38899909454 0.19059715369 -0.91090959083 0.36594595548 
0.20467084813 -0.91452965278 0.34892027471 0.22301274796 -0.91462079405 0.33724489222 0.24667292212 -0.91109304126 0.33024527196 
0.27646924927 -0.90357953433 0.32727477653 0.31289511437 -0.89145961828 0.3277138941 0.35602358697 -0.87390546862 0.33096289436 
0.40542497084 -0.84996770934 0.33643050708 0.46010380999 -0.81871979477 0.3435147474 0.51849237413 -0.77944573079 0.35161059529 
0.57853346722 -0.73184945075 0.36013248777 0.63786968602 -0.6762328337 0.36855314174 0.69412130224 -0.61357805933 0.37645395853 
0.74519773725 -0.54548560161 0.38356979916 0.78955056402 -0.47398644414 0.38980348592 0.82631096393 -0.40127035916 0.39521170244 
0.85528586962 -0.32941336686 0.39996614226 0.87683680237 -0.26018242289 0.40430474747 0.89170273976 -0.19494456929 0.40848848063 
0.90082615371 -0.13466057675 0.41276963292 0.90521023411 -0.079936659697 0.41737820081 0.9058202751 -0.031111269581 0.42251830508 
0.90352484901 0.011641703295 0.42837754138 0.89907151306 0.04823519697 0.43513650752 0.89308512605 0.078614189834 0.44296587541 
0.88606912385 0.10270321496 0.45203269505 0.87840947065 0.12036924409 0.46250194264 0.8703821247 0.1314090239 0.47451725515 
0.86215038018 0.1355388902 0.48818636934 0.85375540998 0.13238997807 0.50356190645 0.84509651506 0.12153521477 0.52061605028 
0.83591315371 0.10251763951 0.53920249726 0.8257633073 0.074880511111 0.55902403291 0.81400592161 0.038230901561 0.57959706499 
0.79980418738 -0.0076767790964 0.60021190334 0.7821524956 -0.062817435897 0.61991244816 0.75994780665 -0.12676414987 0.63750308351 
0.73211503943 -0.19855904517 0.65159947408 0.69778418748 -0.27660574413 0.66074691829 0.65649863227 -0.35866528966 0.66360286002 
0.60839917634 -0.44199821297 0.65915705409 0.55431131033 -0.52364842185 0.64693995203 0.49571002781 -0.60080891887 0.6271365173 
0.43452205351 -0.67119866858 0.60056884061 0.37283584451 -0.73331404536 0.56854546338 0.31262518366 -0.78649515383 0.53262638645 
0.25554046781 -0.83082621452 0.49439545971 0.2028028277 -0.86694349376 0.45528012443 0.15519803705 -0.89581200758 0.416454579 
0.11313014815 -0.91853287936 0.37881251182 0.076706988073 -0.93620075976 0.34299296699 0.045816712721 -0.94982527805 0.30940712662 
0.020196213873 -0.96028255364 0.2782975568 -0.00051370461923 -0.96829844529 0.24979563037 -0.016726739489 -0.97445853542 0.22394369591 
-0.028894459342 -0.97922060678 0.20072895524 -0.037494792532 -0.98293237966 0.18010573993 -0.04300764529 -0.98585054269 0.16201558547 
-0.045920550622 -0.98816295219 0.14637377819 -0.046725925765 -0.9900054333 0.13306363101 -0.045901329406 -0.99147365508 0.12195515261 
-0.043915623954 -0.99263571107 0.11289713493 -0.041206457555 -0.99354370753 0.10570207703 -0.038177515414 -0.99423876397 0.10015866185 
-0.035192015571 -0.99475489589 0.096042798532 -0.032558203231 -0.99512142203 0.093130654568 -0.030527217923 -0.99536218003 0.091226199863 
-0.029281163651 -0.9954949174 0.090180279921 -0.029281163651 -0.9954949174 0.090180279921 
FrenetNormal 3 128 double
0.33661304748 -0.92828953802 0.15801958695 0.33661304748 -0.92828953802 0.15801958695 0.34858994157 -0.92644523741 0.14207137189 
0.3669704546 -0.92285581005 0.11691808807 0.39032277877 -0.91695880912 0.082672067538 0.41678288369 -0.90816585714 0.039074336759 
0.44412590846 -0.89584537157 -0.014603002189 0.46976278832 -0.87917564749 -0.079831720345 0.49066514347 -0.85675371259 -0.15881055675 
0.50325247372 -0.82600838135 -0.25386433706 0.50360205485 -0.78283526385 -0.36545029761 0.48879490125 -0.72263889654 -0.48874591529 
0.45996724556 -0.64393062023 -0.61137835203 0.42511141379 -0.55242521937 -0.7170123171 0.39659628623 -0.45926083485 -0.79485273562 
0.3850371363 -0.37418244959 -0.84364322915 0.39508445501 -0.30076674685 -0.86801361591 0.42630879214 -0.23767927607 -0.87279400518 
0.47552960739 -0.18173781149 -0.86072234801 0.53828547146 -0.12991971498 -0.83268818827 0.60983771061 -0.08056060809 -0.78842117878 
0.68538652934 -0.033462483157 -0.72741017839 0.76049170111 0.010071797391 -0.64926953681 0.83108019347 0.047781637443 -0.55409622553 
0.89371366025 0.076619633618 -0.44204674553 0.94509666253 0.093366996105 -0.31316912764 0.98131606303 0.095064666894 -0.16727669756 
0.99679204069 0.079890252951 -0.0048140530173 0.98403736029 0.048586611573 0.17120109442 0.93573271686 0.0066229192845 0.35264772726 
0.84947429119 -0.034690053631 0.52648839378 0.73063623948 -0.060474488634 0.68008346678 0.58819187691 -0.056536614813 0.8067427887 
0.42646098363 -0.012120359823 0.90442474884 0.24168855128 0.078992287528 0.96713332209 0.029210009355 0.21327274846 0.97655594316 
-0.19937223808 0.36624358976 0.90890942544 -0.40989243052 0.49422736304 0.766633882 -0.57400823074 0.56537870885 0.59233560303 
-0.69483612036 0.5755682847 0.43118895567 -0.79521943483 0.52601693715 0.30154971779 -0.8985082237 0.39165988755 0.19820571238 
-0.99248645859 0.077576484281 0.094617749884 -0.86207244799 -0.5043472845 -0.049647870401 -0.41250976208 -0.89458497516 -0.17191107704 
-0.096704302754 -0.96591460604 -0.24011924469 0.063841222464 -0.95134677109 -0.30143592927 0.14824096566 -0.91691226324 -0.37053544718 
0.19368742643 -0.87324965046 -0.44712439971 0.21629360934 -0.82195470823 -0.52688474278 0.22390704215 -0.76435496121 -0.6046710922 
0.2211216181 -0.70288830286 -0.6760571453 0.21152707961 -0.64062950094 -0.73813964608 0.19854033436 -0.58047761297 -0.78970087785 
0.18632651119 -0.52440754183 -0.83083040465 0.18088746181 -0.47299547494 -0.86229635674 0.19153301053 -0.42499693239 -0.88469922196 
0.233844845 -0.37617750157 -0.8965528851 0.33181358372 -0.31661698695 -0.88862445906 0.51054821539 -0.22641596561 -0.82950366502 
0.74397639096 -0.086303879843 -0.66260906273 0.91215681123 0.073760119123 -0.40314934771 0.96444240896 0.19742813705 -0.17570705878 
0.95898656427 0.28154988679 -0.032778511069 0.93710581052 0.34595462342 0.046347582608 0.9104569326 0.40417313498 0.087819421731 
0.88013726486 0.46237939046 0.10753461903 0.84481980835 0.52270973981 0.11425418741 0.80297650163 0.58517639117 0.11312528031 
0.75366368093 0.64847677126 0.10709310525 0.6966291865 0.71066879461 0.098273296939 0.63244316782 0.76957022153 0.088189078776 
0.56230396955 0.82321724066 0.078279119174 0.48797164296 0.87008062637 0.069594391186 0.4113287685 0.90929177372 0.063222736791 
0.3342532508 0.94057805367 0.0598973229 0.25822668391 0.9641908478 0.060456502818 0.18436917038 0.98066920923 0.065543200169 
0.11323276859 0.99065227169 0.076068500094 0.044871509095 0.99463795757 0.093176612024 -0.021276909914 0.99270094967 0.11871022544 
-0.086569757369 0.98397987402 0.15585019933 -0.1532436496 0.96570836617 0.20957990211 -0.22458760368 0.93105674143 0.28756521437 
-0.30507381958 0.86339940171 0.40183508774 -0.3962003498 0.72459365763 0.5639054124 -0.47879768939 0.45065915456 0.75343154901 
-0.49660618343 0.035137681261 0.86726445905 -0.43431266677 -0.3523576426 0.82898528285 -0.35683064508 -0.59692284602 0.71857846241 
-0.30252427112 -0.73364057143 0.60848219147 -0.27443082944 -0.81256825668 0.5142183856 -0.26770288615 -0.86084810541 0.43275362986 
-0.27761871004 -0.89127927156 0.35853746237 -0.30089978387 -0.90928416974 0.28750933678 -0.33469656107 -0.91708922876 0.21662307934 
-0.37653518536 -0.91510996996 0.14420470543 -0.4238532486 -0.90305509286 0.069569554486 -0.47389865194 -0.88055079855 -0.0070963985686 
-0.52380006842 -0.84760045355 -0.084893812855 -0.57089484531 -0.80482380239 -0.16228900981 -0.61270666413 -0.75369970056 -0.23775471626 
-0.64754050317 -0.69627843041 -0.30965730107 -0.67426917247 -0.6350498373 -0.37692543985 -0.69245059069 -0.57253591254 -0.4389929479 
-0.70213986115 -0.51101836954 -0.49584255704 -0.70362090364 -0.45237016614 -0.5479770586 -0.69729062685 -0.39795723374 -0.59616761219 
-0.68339614803 -0.34868748647 -0.64139437294 -0.66203284181 -0.3050522423 -0.68458428688 -0.63263000281 -0.26729375566 -0.72686541239 
-0.59482486448 -0.23527239606 -0.76865485118 -0.54751604393 -0.20875545134 -0.81033779572 -0.48904921384 -0.18738151819 -0.85189144442 
-0.41822038102 -0.17054823051 -0.89219113085 -0.33352718514 -0.15758808161 -0.92947598856 -0.23346010581 -0.1477591412 -0.96107419859 
-0.11832554669 -0.14011618312 -0.98303942964 0.010254575694 -0.13367751318 -0.99097182914 0.14863989867 -0.12750364865 -0.9806370379 
0.28810733027 -0.12078852625 -0.94994962928 0.42273541474 -0.11319292866 -0.89915634348 0.54044712721 -0.10485137571 -0.83481919701 
0.63702329745 -0.096376782723 -0.76479594289 0.70753671297 -0.08876119735 -0.70108005937 0.75484660522 -0.082784189811 -0.6506561154 
0.78114478251 -0.07907968311 -0.61932159052 0.78114478251 -0.07907968311 -0.61932159052 
FrenetBinormal 3 128 double
0.10769622645 0.2046641221 0.97288957232 0.10769622645 0.2046641221 0.97288957232 0.11241361476 0.19181055327 0.97497276417 
0.12016603022 0.17166261681 0.97779960686 0.13136202834 0.14434220537 0.98076977179 0.14667253292 0.10961029351 0.98309346028 
0.16706595622 0.066790126561 0.98368086556 0.19393283356 0.014553345537 0.98090685399 0.22908784896 -0.049005516107 0.97217139273 
0.27444810404 -0.12578822423 0.95333916359 0.33090313324 -0.21596654641 0.91861938105 0.39630104972 -0.31516591951 0.86233167701 
0.46400274292 -0.41273813671 0.78380398384 0.5247672755 -0.49501473236 0.69251694659 0.57210875588 -0.55349046757 0.6052601703 
0.60463570769 -0.58834483382 0.53690410457 0.62419123416 -0.60537495482 0.49386887659 0.63282766778 -0.6110813186 0.4755089536 
0.63160977422 -0.61050975643 0.47785660026 0.62076303705 -0.60714130448 0.49601682252 0.59983967379 -0.60326112587 0.52561238548 
0.56805323307 -0.60042308191 0.56285668434 0.52417219349 -0.59968934345 0.60466205679 0.4667057542 -0.60177877734 0.6481111341 