# vtk DataFile Version 4.2
vtk output
ASCII
DATASET POLYDATA
POINTS 128 float
0 0 0 -0.322528 -0.0649075 0.0657398 -0.955037 -0.175991 0.215587 
-1.4788 -0.229423 0.388883 -1.90383 -0.231948 0.578115 -2.34752 -0.217166 0.790222 
-2.80421 -0.183477 1.02168 -3.2431 -0.122519 1.26637 -3.66707 -0.0376976 1.51889 
-4.08717 0.0648065 1.77427 -4.50578 0.182135 2.02846 -4.92308 0.312177 2.27778 
-5.34182 0.451415 2.51881 -5.76539 0.595794 2.74837 -6.19613 0.740773 2.96398 
-6.63595 0.881543 3.16357 -7.0861 1.01267 3.34588 -7.54738 1.12846 3.51014 
-8.01935 1.22291 3.65679 -8.50089 1.28991 3.78689 -8.98953 1.32349 3.90264 
-9.48206 1.31791 4.00677 -9.97379 1.26847 4.1028 -10.4593 1.17133 4.19459 
-10.9325 1.0251 4.28613 -11.3868 0.829969 4.38132 -11.8176 0.589702 4.48312 
-12.2211 0.309817 4.59387 -12.5966 -0.00299262 4.71451 -12.9452 -0.341622 4.84519 
-13.2694 -0.700153 4.98501 -13.5727 -1.07342 5.13246 -13.8593 -1.45772 5.28492 
-14.1334 -1.85024 5.43908 -14.3994 -2.24943 5.59037 -14.6611 -2.65451 5.73336 
-14.9218 -3.0654 5.86066 -15.1841 -3.48243 5.96354 -15.4482 -3.90558 6.03059 
-15.7121 -4.33443 6.04898 -15.9683 -4.76641 6.0075 -16.2058 -5.19735 5.89663 
-16.4116 -5.62069 5.71468 -16.5719 -6.02856 5.46564 -16.6798 -6.41604 5.16092 
-16.733 -6.78047 4.81674 -16.7338 -7.12262 4.44695 -16.6877 -7.44564 4.06344 
-16.5999 -7.75293 3.67456 -16.4753 -8.048 3.28607 -16.3184 -8.33365 2.90262 
-16.133 -8.61224 2.52794 -15.9208 -8.88716 2.16422 -15.682 -9.16247 1.81278 
-15.4205 -9.4377 1.48085 -15.1423 -9.70958 1.17989 -14.8345 -9.992 0.907111 
-14.4702 -10.3107 0.65322 -14.0781 -10.6297 0.520593 -13.7353 -10.8611 0.699713 
-13.5017 -10.9608 1.16734 -13.4151 -10.9324 1.69213 -13.4455 -10.8144 2.1777 
-13.506 -10.6726 2.6543 -13.5616 -10.5353 3.13532 -13.6252 -10.3969 3.61514 
-13.6993 -10.2601 4.09336 -13.7749 -10.137 4.57509 -13.8475 -10.0387 5.06313 
-13.9177 -9.97462 5.55771 -13.9855 -9.9567 6.05646 -14.0502 -9.99895 6.55434 
-14.1116 -10.11 7.04258 -14.17 -10.2923 7.50865 -14.2252 -10.5411 7.94369 
-14.2768 -10.844 8.34331 -14.3237 -11.1891 8.70697 -14.3646 -11.5659 9.0383 
-14.3974 -11.9665 9.34117 -14.42 -12.3851 9.61944 -14.4295 -12.8174 9.87666 
-14.423 -13.2599 10.1159 -14.3975 -13.7095 10.3403 -14.3497 -14.1631 10.5526 
-14.2765 -14.6174 10.756 -14.1751 -15.0689 10.9537 -14.0432 -15.5135 11.149 
-13.8791 -15.9467 11.3458 -13.6821 -16.3635 11.5478 -13.4523 -16.7585 11.7588 
-13.1909 -17.1263 11.982 -12.9006 -17.462 12.2199 -12.5851 -17.761 12.4739 
-12.2485 -18.0207 12.7437 -11.8952 -18.2392 13.0281 -11.5293 -18.4167 13.3249 
-11.1543 -18.5541 13.6311 -10.7724 -18.6542 13.9434 -10.3856 -18.7201 14.2583 
-9.9944 -18.7557 14.5728 -9.59915 -18.7652 14.8839 -9.19946 -18.7528 15.1892 
-8.79488 -18.7227 15.4865 -8.38496 -18.6787 15.7747 -7.96948 -18.6244 16.053 
-7.54867 -18.5628 16.3215 -7.12305 -18.4964 16.5811 -6.69371 -18.4271 16.8338 
-6.26191 -18.3566 17.0818 -5.82917 -18.2857 17.3281 -5.39705 -18.2155 17.5757 
-4.9672 -18.1465 17.8276 -4.54118 -18.0795 18.0864 -4.12035 -18.0155 18.3543 
-3.7059 -17.9558 18.6331 -3.29864 -17.9019 18.9232 -2.89904 -17.8563 19.2252 
-2.50679 -17.8223 19.5385 -2.12172 -17.8033 19.8623 -1.7445 -17.8011 20.1942 
-1.37473 -17.8202 20.5322 -1.00783 -17.8758 20.8757 -0.643518 -17.9766 21.2212 
-0.299202 -18.1009 21.5519 0.0210464 -18.2472 21.8606 0.377948 -18.5158 22.1865 
0.772121 -18.9229 22.5228 0.966549 -19.1453 22.684 
LINES 1 129
128 0 1 2 3 4 5 6 7 8 9 10 11 12 13 14 15 16 17 18 19 20 21 22 23 24 25 26 27 28 29 30 31 32 33 34 35 36 37 38 39 40 41 42 43 44 45 46 47 48 49 50 51 52 53 54 55 56 57 58 59 60 61 62 63 64 65 66 67 68 69 70 71 72 73 74 75 76 77 78 79 80 81 82 83 84 85 86 87 88 89 90 91 92 93 94 95 96 97 98 99 100 101 102 103 104 105 106 107 108 109 110 111 112 113 114 115 116 117 118 119 120 121 122 123 124 125 126 127 

CELL_DATA 1
FIELD FieldData 2
Length 1 1 double
58.59560839 
Tortuosity 1 1 double
0.97297137445 
POINT_DATA 128
SCALARS MaximumInscribedSphereRadius float
LOOKUP_TABLE default
0.93 1.02218 1.11436 1.13814 1.15585 1.0725 0.987423 1.03525 1.09064 
1.16167 1.23383 1.23634 1.23234 1.13892 1.03525 0.862058 0.67938 0.714566 
0.784376 0.851704 0.91858 0.93 0.93 0.93 0.93 0.93 0.93 
0.9295 0.928859 0.897765 0.857275 0.78228 0.695613 0.697236 0.731495 0.795348 
0.871125 0.906545 0.924297 0.93 0.93 0.93 0.93 1.02051 1.15991 
1.22587 1.24959 1.1675 1.02029 0.963302 0.965846 1.00332 1.06553 1.1213 
1.1722 1.23232 1.30004 1.36627 1.43129 1.40625 1.29186 1.22194 1.18889 
1.12339 1.03001 1.00778 1.05129 1.11456 1.19739 1.24 1.24 1.24 
1.24 1.24 1.24 1.24147 1.24481 1.27202 1.33168 1.40345 1.49285 
1.58181 1.6701 1.75034 1.81704 1.85868 1.85497 1.83609 1.7876 1.72735 
1.64234 1.57828 1.56175 1.55094 1.55418 1.55463 1.54766 1.51008 1.38392 
1.24827 1.08257 0.955491 0.963218 0.986028 1.06713 1.16247 1.31918 1.44534 
1.42335 1.39389 1.32332 1.2761 1.37691 1.46697 1.47734 1.4766 1.37778 
1.28679 1.28073 1.28181 1.38187 1.49613 1.86582 2.22834 2.19483 2.14032 
1.84516 1.55 
TEXTURE_COORDINATES TCoords 2 float
0 0 0.00787402 0 0.015748 0 0.023622 0 0.0314961 
0 0.0393701 0 0.0472441 0 0.0551181 0 0.0629921 0 
0.0708661 0 0.0787402 0 0.0866142 0 0.0944882 0 0.102362 
0 0.110236 0 0.11811 0 0.125984 0 0.133858 0 
0.141732 0 0.149606 0 0.15748 0 0.165354 0 0.173228 
0 0.181102 0 0.188976 0 0.19685 0 0.204724 0 
0.212598 0 0.220472 0 0.228346 0 0.23622 0 0.244094 
0 0.251969 0 0.259843 0 0.267717 0 0.275591 0 
0.283465 0 0.291339 0 0.299213 0 0.307087 0 0.314961 
0 0.322835 0 0.330709 0 0.338583 0 0.346457 0 
0.354331 0 0.362205 0 0.370079 0 0.377953 0 0.385827 
0 0.393701 0 0.401575 0 0.409449 0 0.417323 0 
0.425197 0 0.433071 0 0.440945 0 0.448819 0 0.456693 
0 0.464567 0 0.472441 0 0.480315 0 0.488189 0 
0.496063 0 0.503937 0 0.511811 0 0.519685 0 0.527559 
0 0.535433 0 0.543307 0 0.551181 0 0.559055 0 
0.566929 0 0.574803 0 0.582677 0 0.590551 0 0.598425 
0 0.606299 0 0.614173 0 0.622047 0 0.629921 0 
0.637795 0 0.645669 0 0.653543 0 0.661417 0 0.669291 
0 0.677165 0 0.685039 0 0.692913 0 0.700787 0 
0.708661 0 0.716535 0 0.724409 0 0.732283 0 0.740157 
0 0.748031 0 0.755906 0 0.76378 0 0.771654 0 
0.779528 0 0.787402 0 0.795276 0 0.80315 0 0.811024 
0 0.818898 0 0.826772 0 0.834646 0 0.84252 0 
0.850394 0 0.858268 0 0.866142 0 0.874016 0 0.88189 
0 0.889764 0 0.897638 0 0.905512 0 0.913386 0 
0.92126 0 0.929134 0 0.937008 0 0.944882 0 0.952756 
0 0.96063 0 0.968504 0 0.976378 0 0.984252 0 
0.992126 0 1 0 
FIELD FieldData 7
Curvature 1 128 double
0 0.020781969815 0.037513780706 0.050936355409 0.060071418506 0.064434445246 0.064073503263 0.0595275414 0.051722706388 
0.041936610653 0.03206563094 0.025625684487 0.027377224209 0.036853892239 0.049970838789 0.064474931576 0.079461205887 0.094456990735 
0.10910849402 0.12301431118 0.13568219309 0.14651192 0.1548393751 0.16003589366 0.16162757014 0.15940773228 0.15353413697 
0.14450636695 0.133174844 0.12066823338 0.10842511418 0.098288973646 0.092466066351 0.093023802977 0.10094439956 0.11556479432 
0.13529689788 0.15831172068 0.18266700127 0.20618686778 0.22638556013 0.24082886092 0.24762467099 0.24609753556 0.23693030253 
0.2221883066 0.20450926677 0.18667272622 0.17147440016 0.1615442164 0.15974426586 0.16942933533 0.19511741711 0.24393353105 
0.32888416501 0.47294543696 0.70822113632 1.0414848749 1.3447953981 1.3519427834 1.0442384659 0.68687629141 0.42704433453 
0.26380662651 0.16463199714 0.10819309544 0.087470049894 0.095680988817 0.11792392887 0.14372263726 0.16815139914 0.18818020482 
0.20152853832 0.20694649494 0.20437403321 0.19497597217 0.18074688618 0.16396099859 0.14663797055 0.13057618652 0.11711327752 
0.1073663177 0.10204338767 0.10136933002 0.10486626816 0.11157535983 0.12037788068 0.13012915762 0.1398347577 0.14857777629 
0.15557804935 0.1601614125 0.16192746368 0.16058258777 0.15623531738 0.14919446967 0.13996295781 0.12911837638 0.11725633189 
0.10497614176 0.092654335018 0.08067383557 0.069133130178 0.058072140843 0.047477095928 0.037163883155 0.027155977615 0.01737231599 
0.008377699089 0.0059724212305 0.01388684002 0.023082353558 0.032336666037 0.041654734915 0.051051565524 0.060707792168 0.070609591076 
0.080517557898 0.089900533075 0.097788654277 0.10282451877 0.10361986898 0.09891124771 0.088051397261 0.07119026122 0.049283880797 
0.023949397204 0 
Torsion 1 128 double
0 0 0.03585115831 0.052003568626 0.072229227741 0.098673743348 0.13545769539 0.19086431828 0.2832733241 
0.45613881207 0.80116432981 1.2865589329 1.1883692369 0.7249337204 0.45817597469 0.33153541938 0.26702517922 0.23017459295 
0.20610980328 0.18801481115 0.1723887803 0.15746729817 0.14208495971 0.12547295061 0.10660122475 0.084058577664 0.055909650085 
0.019188524992 -0.030304654923 -0.097893260086 -0.18755069874 -0.29322768071 -0.38367530544 -0.40704171301 -0.34656114718 -0.24486056725 
-0.14723501858 -0.070271837968 -0.01325702151 0.028802567028 0.06110101568 0.087376205841 0.11086536379 0.13384922422 0.15897964018 
0.18917892531 0.22674244264 0.27427659778 0.33115467431 0.39009114137 0.43403484954 0.44269240131 0.41009429214 0.35038687855 
0.28323326954 0.22128551632 0.16907283736 0.12860280964 0.1042495591 0.10024861996 0.11770900668 0.15844972933 0.23276405979 
0.36973814002 0.63086338715 1.0535253392 1.2357082743 0.82283936524 0.43978634566 0.24191296123 0.1453655242 0.098051872287 
0.077099272136 0.072334168189 0.079396978844 0.096954785867 0.12492461543 0.16394027581 0.21486750391 0.27657267075 0.34381029464 
0.40341946156 0.43711744712 0.43263410812 0.3946236013 0.34009080989 0.28424568322 0.23431469368 0.191780225 0.15574506594 
0.12466721588 0.097074635014 0.071886642585 0.048039477934 0.025086507105 0.0028956440252 -0.018718344952 -0.039535523127 -0.059280230139 
-0.076682396153 -0.090489886016 -0.099441547627 -0.10127656866 -0.093494142087 -0.073372841932 -0.033294380635 0.047756098549 0.2644005675 
1.3759762765 2.7735316647 0.53995637264 0.24372613975 0.18219500903 0.16999265969 0.17033818608 0.17020111088 0.16475568507 
0.15340976359 0.13718852808 0.11818719175 0.098543104642 0.079949127283 0.063122135652 0.047974226376 0.034590084434 0.023228057074 
0 0 
Abscissas 1 128 double
0 0.50293800642 1.0058760128 1.5088141141 2.0117522237 2.5146917754 3.0176313516 3.5205723111 4.0235133493 
4.5264507606 5.0293879065 5.5323275792 6.0352674881 6.5382088182 7.0411503111 7.5440898358 8.0470290921 8.5499676488 
9.0529060943 9.5558452012 10.058784429 10.561726199 11.064668494 11.567608774 12.070548591 12.573482423 13.076414727 
13.579356323 14.082300528 14.585227763 15.088149762 15.591099575 16.094058795 16.596997679 17.099929045 17.602867828 
18.105809601 18.608742431 19.111671347 19.614617119 20.11757087 20.620515514 21.12345554 21.626392714 22.129328348 
22.63226927 23.135213235 23.638150764 24.141084333 24.644021788 25.146961807 25.649898334 26.152832389 26.655765767 
27.158698632 27.661637399 28.164581031 28.667521741 29.170460089 29.673398978 30.176338402 30.679281428 31.182227439 
31.685169638 32.188108562 32.691048678 33.193989896 33.696923344 34.199849104 34.702784175 35.205729112 35.708669555 
36.211604919 36.714544902 37.217490418 37.720436718 38.223384016 38.726322249 39.229248154 39.732174139 40.235100242 
40.738036982 41.240990373 41.743941472 42.246888717 42.74982889 43.252756262 43.755681976 44.258604457 44.761537783 
45.264493918 45.767445842 46.270388216 46.773336318 47.276298467 47.779255264 48.282197839 48.78513683 49.288065447 
49.790993833 50.293921488 50.796854027 51.29980361 51.802747233 52.305667815 52.808596325 53.311559027 53.81451598 
54.317445061 54.820374358 55.323304847 55.826237811 56.329186467 56.83213291 57.335062961 57.837993993 58.340933682 
58.843872876 59.346806708 59.849742036 60.352698125 60.855653369 61.358593402 61.861533195 62.3644597 62.867386437 
63.370315841 63.873245246 
ParallelTransportNormals 3 128 double
0.22249783315 0 0.9749331845 0.28924506305 0.007940286118 0.95442834002 0.35599229295 0.015880572236 0.93392349553 
0.40036496809 0.016531939754 0.91511267749 0.44275447952 0.016537255584 0.89645200911 0.4717037306 0.013354348911 0.88102598505 
0.50042452815 0.010117249786 0.86565494252 0.51059034052 0.0080629129581 0.859718072 0.51970006808 0.0060758948204 0.85431816153 
0.51411988869 0.0077659591217 0.85764552457 0.50746507488 0.0097250189584 0.86161132792 0.48792104182 0.016175520761 0.87238653959 
0.46717259261 0.023045719452 0.88379804746 0.43628669843 0.032938978699 0.89844580986 0.40423897628 0.04317870358 0.91346447153 
0.3664051719 0.053200067923 0.9279634171 0.32778216509 0.063191648614 0.94239147511 0.29007612945 0.069543550857 0.95365930569 
0.25251582232 0.07531702172 0.96442490105 0.2232834672 0.076430282028 0.97134123552 0.19556778763 0.07669483098 0.97755654771 
0.18184568059 0.075192916316 0.98038492071 0.17100527912 0.073327232642 0.9825158191 0.17468279992 0.075214897248 0.98171834691 
0.18170297308 0.077966744632 0.9802466374 0.19708330756 0.087549766966 0.9762426001 0.21459619359 0.098875319394 0.97159260403 
0.23237909726 0.11419101584 0.96558409756 0.25023787431 0.13062791953 0.95919385758 0.26352407148 0.14523772404 0.95347157662 
0.27539937169 0.15928376613 0.94795539842 0.2801434075 0.16526449407 0.94561652048 0.28247521226 0.16851703802 0.94435240038 
0.27534443674 0.15755012568 0.94814542087 0.26471576665 0.1413269135 0.95380784106 0.24076098519 0.10353644106 0.9635279077 
0.21143586574 0.057054500107 0.97488318002 0.16603336534 -0.016876685114 0.98123222579 0.1135926975 -0.10282427884 0.98538970436 
0.054409463474 -0.20800377659 0.96836621297 -0.0079650784383 -0.32228588086 0.94131760733 -0.057526393645 -0.43231569616 0.89122575207 
-0.10058871268 -0.54018870817 0.82944613115 -0.12326916476 -0.62332312347 0.76703775526 -0.13494060912 -0.69309529854 0.70428976533 
-0.13668096058 -0.74060238153 0.65601711166 -0.13270780735 -0.77530002761 0.6160723331 -0.1276549251 -0.79744404017 0.58930282643 
-0.12193754632 -0.81186218308 0.57064176367 -0.11856944178 -0.81928786319 0.56096989468 -0.11675176876 -0.82209878416 0.55723055125 
-0.11917492045 -0.81954039051 0.56039105369 -0.12459922647 -0.8131822308 0.56843445125 -0.13771492026 -0.79983873124 0.58341328957 
-0.1566588292 -0.78120203042 0.60364751769 -0.20658458792 -0.73729464289 0.63597104735 -0.2820608629 -0.6725466956 0.67826454001 
-0.46647722896 -0.54260419781 0.61793492329 -0.738935564 -0.35997350659 0.47466852433 -0.89713259707 -0.2693906772 0.30705282438 
-0.94198212973 -0.27011955944 0.11528255628 -0.96107370283 -0.2746212097 0.011807745224 -0.95879911443 -0.28225236137 -0.018426210313 
-0.9566800084 -0.28802047338 -0.040255299441 -0.95469438011 -0.29218921236 -0.054869020689 -0.95295322764 -0.2954481388 -0.067121351384 
-0.9514379644 -0.29786642241 -0.077191819345 -0.94936703846 -0.30011887315 -0.091456129258 -0.94674621079 -0.30220721034 -0.10987080051 
-0.94324206911 -0.30162471274 -0.13579562143 -0.93880195957 -0.29821217339 -0.16967826782 -0.93401210961 -0.28877498427 -0.20688693724 
-0.92882688219 -0.27252699919 -0.24785563672 -0.92432596054 -0.25381546248 -0.28331212805 -0.92064492081 -0.23215228989 -0.31216432047 
-0.91794924824 -0.21395383654 -0.33370046414 -0.91650775885 -0.20016530537 -0.34592468277 -0.91567726961 -0.19222352771 -0.35296636274 
-0.91567772636 -0.19223319864 -0.35295991086 -0.91552631325 -0.19869137699 -0.3494567116 -0.91515351864 -0.21454957919 -0.34085628492 
-0.91342910427 -0.23703180079 -0.3295711857 -0.90958890299 -0.26988307293 -0.31408357689 -0.90284104571 -0.30864761357 -0.29629286934 
-0.89120147003 -0.35736038896 -0.27462752512 -0.87517607243 -0.41022439312 -0.25063584437 -0.85121187376 -0.47060256 -0.22243324865 
-0.82215844263 -0.53232355153 -0.19168698198 -0.78317981526 -0.59666336592 -0.15597996069 -0.74005466873 -0.65887030144 -0.11800745644 
-0.68820836239 -0.71659126289 -0.075270078779 -0.63450625222 -0.76978085371 -0.031332766432 -0.57659401034 -0.81269044254 0.015326753389 
-0.51908330258 -0.85073251122 0.061762413372 -0.46255719233 -0.87683898595 0.10764914905 -0.40772920504 -0.89917613125 0.15218716788 
-0.35741409875 -0.91149601898 0.19314087701 -0.30927866558 -0.92150313054 0.23212515166 -0.26745093596 -0.92481735484 0.26541012731 
-0.22780840554 -0.92704094911 0.29661892191 -0.19509048217 -0.92580848119 0.32124857356 -0.16439441802 -0.92427210306 0.34403840569 
-0.14075448151 -0.92167510251 0.36040741425 -0.1189491409 -0.91916840165 0.37532123759 -0.10423401441 -0.91701068447 0.38461116589 
-0.091105529423 -0.91506913543 0.39284806922 -0.08481978608 -0.91405985917 0.39654356993 -0.079820459696 -0.91325758011 0.39948545777 
-0.081057307726 -0.91345876311 0.39877405009 -0.083316788954 -0.91382140508 0.39744695946 -0.091210853338 -0.91507366615 0.39272753152 
-0.099942988615 -0.91643754568 0.38740215854 -0.11398877932 -0.91850912433 0.3782348872 -0.12878998786 -0.92062926663 0.36838776406 
-0.1491855505 -0.92310905402 0.35350590184 -0.17033390287 -0.92552820341 0.33783556558 -0.19813138401 -0.92741175862 0.31520091358 
-0.22672977328 -0.92903822971 0.29167599342 -0.26401346516 -0.92787679899 0.25849672213 -0.30236020778 -0.92606922003 0.22419794019 
-0.35545401896 -0.91529801221 0.1743688551 -0.40878817997 -0.90372299564 0.12428810513 -0.46644288093 -0.87769867573 0.069683415451 
-0.52445378261 -0.85101148223 0.014811495584 -0.60214280011 -0.7877041957 -0.054823411477 -0.67359579024 -0.72947852797 -0.11886878734 
-0.67359579024 -0.72947852797 -0.11886878734 -0.67359579024 -0.72947852797 -0.11886878734 
FrenetTangent 3 128 double
-0.93190361115 -0.025187949714 0.36183038391 -0.93190361115 -0.025187949714 0.36183038391 -0.92912090476 -0.013346967505 0.36953511713 
-0.92464642699 0.0048184795208 0.38079622806 -0.91862987342 0.027982629508 0.39412704564 -0.91141960135 0.05450871592 0.40785182377 
-0.90359683608 0.082599259941 0.42034523915 -0.89593588674 0.11045150052 0.43023174323 -0.88930236532 0.13638469159 0.43650947176 
-0.88452516841 0.15891654526 0.43858950978 -0.88227820886 0.17678603897 0.43627039619 -0.88299539254 0.18893673088 0.42967667901 
-0.88682398975 0.1944838871 0.41918877473 -0.89361202017 0.19268450267 0.40537666415 -0.90291708311 0.18292295371 0.3889472124 
-0.91402714546 0.1647202928 0.37070419813 -0.92599372614 0.13776328721 0.35150660854 -0.93767171078 0.10195179235 0.33223123701 
-0.94777141331 0.057459317332 0.31373201139 -0.95492953121 0.0047977130467 0.29679382131 -0.95780444099 -0.055126515242 0.28208459747 
-0.9552006169 -0.12098207221 0.27010205419 -0.94621350778 -0.19103018303 0.2611273001 -0.93037694168 -0.2632098858 0.25518483968 
-0.90777661656 -0.3352987569 0.25202451875 -0.87909507116 -0.40512952081 0.25112133965 -0.84555940166 -0.47082670273 0.25169726709 
-0.80879166214 -0.53100402979 0.25276623114 -0.77059331131 -0.58487872641 0.25318535492 -0.73270823177 -0.63228404445 0.25170525269 
-0.69661460288 -0.67358278473 0.2470107835 -0.66336470276 -0.7095212381 0.23775383027 -0.63348447065 -0.74104929368 0.22258339959 
-0.60693371536 -0.76912940419 0.20017848228 -0.58309446191 -0.79456853596 0.16929763778 -0.56079363001 -0.8178659133 0.12886369694 
-0.53835950461 -0.83908847371 0.078099789236 -0.51372464973 -0.85779217019 0.016720556527 -0.48460692152 -0.87301262126 -0.054818744432 
-0.44878454239 -0.88337430263 -0.13506396994 -0.40448057863 -0.88734483132 -0.22139243852 -0.3507653466 -0.88364181025 -0.31006583625 
-0.28786374549 -0.87168202847 -0.39661682426 -0.21719059784 -0.85191259346 -0.4765219589 -0.1410754287 -0.82584963013 -0.54595797625 
-0.062219709198 -0.79580624021 -0.60234635869 0.016884691158 -0.76443246676 -0.64448266925 0.094325813464 -0.73425953819 -0.67228384741 
0.16898136474 -0.70739291185 -0.68632395167 0.24051588651 -0.68537613323 -0.6873220965 0.3092621601 -0.66919305445 -0.67567564127 
0.3760919675 -0.65932296386 -0.6510361444 0.44227035161 -0.65577915594 -0.61184200144 0.50923356874 -0.65804319921 -0.55467136256 
0.57812136525 -0.664689021 -0.47324855245 0.64850947063 -0.67226303115 -0.35706845765 0.71499404029 -0.67261944889 -0.19070028665 
0.76007982832 -0.64853876063 0.04094057339 0.74924010469 -0.57458477735 0.32938062961 0.65506579331 -0.44186328363 0.61289937593 
0.50290136931 -0.28552145077 0.81582333498 0.34769788807 -0.15096467029 0.92537335544 0.21947933637 -0.055018169169 0.97406458819 
0.12190237559 0.0053679215252 0.99252757959 0.049522349591 0.037283991757 0.99807687121 -0.003784818118 0.046272599851 0.99892167944 
-0.042792305706 0.035827253713 0.99844139861 -0.070898825997 0.0080690696633 0.99745087427 -0.090461264141 -0.035498147401 0.99526712054 
-0.10308369212 -0.09332985273 0.99028444954 -0.10983764696 -0.16333760221 0.98043690211 -0.11143532486 -0.24259228657 0.96370698393 
-0.10836536655 -0.32730300076 0.93868508725 -0.10099212895 -0.41317219571 0.90503553885 -0.089619065089 -0.49601038604 0.86367940818 
-0.074505119354 -0.57235260768 0.81661587033 -0.055836569531 -0.63985936508 0.76646087338 -0.033703999689 -0.69737641474 0.71591212909 
-0.0081027846634 -0.74469734555 0.66735313621 0.021051139973 -0.7822212292 0.62264500166 0.053874696464 -0.81061447954 0.58309663234 
0.090460220476 -0.83055401599 0.54954251431 0.13081746049 -0.8425801465 0.52244185204 0.17482923167 -0.84703017486 0.50197073881 
0.22221274543 -0.84403039672 0.4880923941 0.2724821132 -0.83354038133 0.48058706878 0.32494452224 -0.8154222432 0.47905910153 
0.37870311225 -0.7895284036 0.48293773168 0.43268241002 -0.75581116175 0.49146253147 0.48569016573 -0.71442812384 0.50368394731 
0.53649957836 -0.66583635409 0.51848833352 0.58395351762 -0.61085442983 0.53465423857 0.62708573643 -0.55066630138 0.55093566202 
0.66521249122 -0.48677987987 0.56616048085 0.69800656216 -0.420922108 0.57931978922 0.7255165906 -0.35487501974 0.5896519288 
0.74811359009 -0.29033028387 0.59668616759 0.766402341 -0.22876821459 0.60024374691 0.78110993733 -0.17138093736 0.60041305791 
0.79298382649 -0.11902472508 0.59750294203 0.80269313889 -0.072237093908 0.59200128974 0.81077277705 -0.03126616913 0.58452538924 
0.81760278707 0.0038766706758 0.57576961886 0.82340083091 0.033345469825 0.56647961242 0.82824991988 0.057428921479 0.55740827873 
0.83213146487 0.076475778378 0.54928014755 0.83496145589 0.090865792294 0.54275480188 0.836629455 0.10096093488 0.53838466235 
0.83702766272 0.1070577439 0.53658487801 0.83607718415 0.1093563044 0.53760221431 0.83374002719 0.10793770037 0.54150440432 
0.83003067991 0.10275636797 0.54816986349 0.82502621331 0.093625787274 0.55728445099 0.81885002081 0.080236548135 0.56837200826 
0.81165553485 0.062202663811 0.58081504919 0.80360230162 0.039121094234 0.59387951708 0.79481818975 0.010652902498 0.60675411899 
0.78537315344 -0.023335608813 0.61858262117 0.77526338205 -0.06264061398 0.62852433678 0.76443033475 -0.10657081133 0.63583718473 
0.75283304559 -0.15380261075 0.63998997054 0.74055636179 -0.20235600617 0.64080287279 0.72793373796 -0.24970242238 0.63856180077 
0.71561759716 -0.293014301 0.6340615696 0.70453871369 -0.32952838857 0.62851908645 0.69575802295 -0.35689021966 0.62333790564 
0.69024195655 -0.37340287693 0.61978732879 0.69024195655 -0.37340287693 0.61978732879 
FrenetNormal 3 128 double
0.18909209373 0.81755205198 0.54392354461 0.18909209373 0.81755205198 0.54392354461 0.19854890058 0.8250612715 0.52901061649 
0.21222130969 0.8367879763 0.50472566651 0.22773039239 0.85264162214 0.47025645405 0.24195085011 0.87272284764 0.42404553687 
0.25092870516 0.89733330682 0.36308087445 0.24941023227 0.92657860382 0.2815077743 0.229182997 0.9588957593 0.16731430508 
0.17449669088 0.98464578611 -0.0048560024802 0.051729170156 0.95759789843 -0.28342610655 -0.1789040825 0.71083935097 -0.68022110109 
-0.39543281817 0.15000687042 -0.90616269242 -0.44737657139 -0.30949243652 -0.83908797817 -0.42054324876 -0.56292038594 -0.71152232222 
-0.37056700747 -0.71082254466 -0.59783894402 -0.31037027659 -0.80787954493 -0.50099993243 -0.24273579168 -0.87628432366 -0.41617919162 
-0.16865573939 -0.92515578245 -0.34006178815 -0.08901501037 -0.95847996917 -0.2709104587 -0.0049919481714 -0.9780959288 -0.20809477292 
0.081886466419 -0.98504034044 -0.15162497923 0.16980484683 -0.9802076754 -0.10178028827 0.25668018888 -0.96468219892 -0.059190672588 
0.34037814479 -0.93996853257 -0.024533168052 0.41874829333 -0.90810191867 0.00087872086452 0.48989016853 -0.87165102612 0.015235204037 
0.55214452454 -0.83360396283 0.015519574013 0.60397120579 -0.7970008833 -0.0028938884235 0.64326990793 -0.7641893251 -0.047100965441 
0.66600155339 -0.7351515093 -0.12646813537 0.66429137019 -0.7046441785 -0.24938636129 0.62776703244 -0.66040537755 -0.41203554493 
0.55511380081 -0.59051068353 -0.58578648054 0.46806415444 -0.4988999494 -0.72939343829 0.39773561065 -0.40261884375 -0.82444190255 
0.36091594884 -0.31332168508 -0.87839011808 0.35781225546 -0.23192248645 -0.90453432777 0.38217476117 -0.15493957162 -0.91100833205 
0.42655818733 -0.078946136364 -0.90100811338 0.48418103198 -0.0024018725568 -0.87496454744 0.54930288458 0.074015774791 -0.83233887694 
0.61694980614 0.14796092676 -0.77296862864 0.68362064263 0.21571416617 -0.6972303891 0.74669371404 0.2733370119 -0.60641188589 
0.80528820241 0.31650082276 -0.50133635441 0.85880851358 0.3411690699 -0.3821669828 0.90600453924 0.34320347048 -0.24772394461 
0.94311200181 0.31834154589 -0.095908353167 0.96171210307 0.26411439149 0.073167062328 0.94990150943 0.18359996608 0.25293907336 
0.89922552085 0.090240714794 0.42807718468 0.81325571032 0.0055818253499 0.58187970652 0.70500186052 -0.050694369786 0.7073913044 
0.58459169726 -0.067211741993 0.80853888542 0.45083163571 -0.038754751329 0.89176729335 0.291133965 0.038456996585 0.9559090301 
0.088258979126 0.16544612449 0.98226164157 -0.15921871977 0.32647944461 0.93169768247 -0.40915100937 0.47450157307 0.77938675167 
-0.60173475354 0.5619215807 0.56759089451 -0.72447023546 0.58325586869 0.36736285819 -0.80543623979 0.5531895731 0.2127293112 
-0.8755736146 0.47153833321 0.1049878361 -0.95181242344 0.3045783271 0.035849034051 -0.99968072075 -0.025131126403 -0.0026235561828 
-0.86176059553 -0.50696882512 -0.018742634423 -0.5450270406 -0.83780898601 -0.031962915733 -0.29424160785 -0.95379752684 -0.060763097423 
-0.14412727948 -0.98367973138 -0.10771032163 -0.052251407546 -0.98409230229 -0.16980026792 0.010048161271 -0.96997234841 -0.24300756734 
0.058136256103 -0.94471608351 -0.32269443331 0.10063422127 -0.90926326953 -0.40387257915 0.14301797837 -0.86459073097 -0.48169360157 
0.18962381448 -0.81208216678 -0.55187440907 0.24470923036 -0.75301504686 -0.61080744247 0.31239202331 -0.68777875856 -0.65526452907 
0.39674460127 -0.61499333937 -0.6814520628 0.50004591152 -0.53105180502 -0.68405998769 0.62019029443 -0.43049575947 -0.65577236887 
0.74648161992 -0.30871555994 -0.58945728782 0.8590332928 -0.16673551908 -0.48400523607 0.93637919572 -0.014555221798 -0.35068810549 
0.96851792121 0.13346359891 -0.21014400791 0.96031916384 0.26649501369 -0.082264884656 0.92402642843 0.38164538317 0.022846467355 
0.87089318954 0.48060348217 0.10278786573 0.80847103497 0.56652041437 0.15946537463 0.74129755777 0.64198685478 0.19578255575 
0.67203200055 0.70870492802 0.21473312563 0.60253263823 0.76751320855 0.21881017931 0.5343418276 0.81873232937 0.21013372913 
0.46890658826 0.86244248654 0.19057693695 0.40790368985 0.89863548764 0.16145847816 0.35263014078 0.92746977611 0.12430526222 
0.30444431241 0.94915420148 0.080124668228 0.26422247418 0.96399386491 0.030038517995 0.2326454794 0.97223643355 -0.025147528545 
0.20978651447 0.97409967634 -0.084376767488 0.19505749748 0.96984374058 -0.14613586668 0.18734012704 0.95991071075 -0.20850684446 
0.18512460723 0.94511203861 -0.26924359653 0.18577035992 0.92742292424 -0.32461684025 0.18662470824 0.9096758096 -0.37102714147 
0.18348611794 0.89669943374 -0.40281878066 0.16892794698 0.89633485578 -0.40993557425 0.12265455756 0.92338270189 -0.36375849868 
-0.061352317978 0.99285094261 -0.10238602852 -0.54846462638 0.14391360839 0.8236961982 -0.43717871341 -0.46999733756 0.76679676266 
-0.38048239843 -0.61430645342 0.69127471078 -0.3490155963 -0.6911803021 0.63281743301 -0.32478925818 -0.75166317391 0.57403345787 
-0.30262184399 -0.80569988133 0.50918338618 -0.28150474694 -0.85418124733 0.43718357033 -0.26247755687 -0.89544750745 0.35955429846 
-0.24746653835 -0.92779987475 0.27919116178 -0.23813750622 -0.95062750834 0.19899213182 -0.23564212399 -0.96419055062 0.12169376111 
-0.23993100918 -0.96954060947 0.049235326891 -0.2500341367 -0.96809208922 -0.016752231664 -0.26385521744 -0.96162268389 -0.075247844163 
-0.27927391213 -0.95206965383 -0.12477762722 -0.29391056566 -0.9416191192 -0.16422549665 -0.30591506429 -0.9324162016 -0.19239542726 
-0.31323199364 -0.92633678846 -0.20925074077 -0.31323199364 -0.92633678846 -0.20925074077 
FrenetBinormal 3 128 double
-0.30951549172 0.57530358028 -0.7571168674 -0.30951549172 0.57530358028 -0.7571168674 -0.31194980111 0.56488561385 -0.76393164934 
-0.31621369478 0.54750585839 -0.77475559647 -0.32289011139 0.52174633361 -0.78963456062 -0.33282742735 0.48516350965 -0.80860514004 
-0.34719957193 0.43355541598 -0.8315540623 -0.36755057188 0.3595171164 -0.85770275745 -0.39574797147 0.24883355622 -0.8840053192 
-0.43262701178 0.072237161701 -0.89867439106 -0.46787739326 -0.22749277207 -0.85401275373 -0.43394984275 -0.6775030102 -0.59386631925 
-0.23911523898 -0.9693678128 -0.056124379756 -0.036218238273 -0.9311751254 0.36276869359 0.088792550101 -0.80601478405 0.58519744612 
0.16502869552 -0.6838117688 0.71075100739 0.21495560136 -0.57301999754 0.79084901964 0.2486988103 -0.47088386693 0.84641436993 
0.27071126628 -0.37521354592 0.88652704712 0.28317118206 -0.28511950241 0.91570789611 0.28737733603 -0.20072224934 0.93654943562 
0.2844053236 -0.12271457091 0.95081793525 0.27540209092 -0.051965202391 0.95992359387 0.26175184245 0.010431255909 0.96507883713 
0.24512105781 0.063513001846 0.96740982299 0.22768777459 0.10592911158 0.96795521623 0.21221904025 0.1361862866 0.96768609285 