# vtk DataFile Version 4.2
vtk output
ASCII
DATASET POLYDATA
POINTS 128 float
0 0 0 -0.26504 0.00750353 -0.213604 -0.793661 0.0121908 -0.611672 
-1.26332 -0.0086014 -0.897768 -1.69084 -0.0596356 -1.07301 -2.1621 -0.141577 -1.20073 
-2.65851 -0.258634 -1.26006 -3.13903 -0.413743 -1.21729 -3.58931 -0.599517 -1.0848 
-4.00412 -0.806351 -0.887011 -4.38497 -1.02835 -0.642291 -4.7359 -1.26124 -0.36631 
-5.06347 -1.50319 -0.0704459 -5.37476 -1.75332 0.235823 -5.67523 -2.01177 0.545914 
-5.96973 -2.27903 0.854257 -6.26257 -2.55593 1.15558 -6.5577 -2.84347 1.44463 
-6.85812 -3.14278 1.71569 -7.16629 -3.45506 1.96273 -7.48319 -3.78122 2.17883 
-7.80885 -4.12201 2.35662 -8.14069 -4.47753 2.48815 -8.47463 -4.84738 2.56529 
-8.80322 -5.2295 2.58052 -9.11731 -5.62084 2.52725 -9.40523 -6.01644 2.40364 
-9.65459 -6.41049 2.21089 -9.8561 -6.79735 1.9568 -10.0026 -7.1718 1.65239 
-10.0926 -7.53124 1.31012 -10.1279 -7.87455 0.942795 -10.1124 -8.20239 0.560433 
-10.0513 -8.51638 0.171375 -9.94978 -8.81852 -0.218513 -9.81288 -9.11107 -0.604759 
-9.64504 -9.39668 -0.983836 -9.45025 -9.67813 -1.35286 -9.23195 -9.95741 -1.71023 
-8.99317 -10.2363 -2.05471 -8.73521 -10.5193 -2.38143 -8.45859 -10.8117 -2.68392 
-8.16639 -11.1131 -2.96191 -7.8626 -11.4212 -3.2164 -7.54279 -11.7544 -3.41696 
-7.20134 -12.1394 -3.51216 -6.88683 -12.5393 -3.44363 -6.68046 -12.8763 -3.15592 
-6.59918 -13.1131 -2.70018 -6.61124 -13.2454 -2.20098 -6.68262 -13.2964 -1.70691 
-6.77978 -13.306 -1.2143 -6.88672 -13.2927 -0.722358 -7.00034 -13.259 -0.232963 
-7.1165 -13.2088 0.25404 -7.2301 -13.1476 0.740377 -7.33713 -13.0797 1.22736 
-7.43448 -13.0084 1.71593 -7.51885 -12.9378 2.20699 -7.58687 -12.8725 2.70138 
-7.63526 -12.8181 3.19942 -7.66094 -12.7808 3.70087 -7.6617 -12.7681 4.20425 
-7.63626 -12.7881 4.7069 -7.5858 -12.8484 5.20458 -7.51396 -12.9555 5.69162 
-7.42658 -13.1128 6.16243 -7.33162 -13.3203 6.61161 -7.23676 -13.5753 7.03577 
-7.14923 -13.8716 7.43363 -7.07409 -14.2028 7.80554 -7.01406 -14.5618 8.1535 
-6.97033 -14.9426 8.47987 -6.9424 -15.3402 8.78741 -6.92894 -15.7504 9.07876 
-6.9277 -16.1701 9.3565 -6.93583 -16.5968 9.62305 -6.94977 -17.0289 9.88068 
-6.96548 -17.4648 10.1315 -6.97828 -17.9036 10.3776 -6.9829 -18.3442 10.6206 
-6.97329 -18.7855 10.8623 -6.94249 -19.2259 11.1041 -6.88239 -19.6627 11.3472 
-6.78431 -20.0917 11.5923 -6.63896 -20.5062 11.8392 -6.43956 -20.8978 12.0867 
-6.18327 -21.2558 12.3321 -5.87205 -21.5714 12.5728 -5.51484 -21.8395 12.8068 
-5.12172 -22.0586 13.0334 -4.70359 -22.2332 13.2539 -4.2697 -22.3687 13.4705 
-3.82624 -22.4712 13.6857 -3.37816 -22.5466 13.9022 -2.92866 -22.5997 14.1223 
-2.48031 -22.6351 14.3481 -2.03485 -22.6564 14.5813 -1.5937 -22.6669 14.8232 
-1.15781 -22.669 15.0747 -0.727941 -22.6649 15.3363 -0.304501 -22.6561 15.608 
0.112272 -22.644 15.8898 0.522424 -22.6292 16.181 0.926171 -22.6123 16.4809 
1.32403 -22.5931 16.7884 1.71667 -22.5712 17.1023 2.10505 -22.5458 17.4213 
2.49018 -22.5161 17.7437 2.87318 -22.4812 18.0682 3.25515 -22.4402 18.3932 
3.63716 -22.3927 18.7173 4.02023 -22.3385 19.039 4.40512 -22.2785 19.3576 
4.7925 -22.2141 19.6723 5.1827 -22.1481 19.983 5.57603 -22.0839 20.29 
5.97295 -22.0268 20.5943 6.37333 -21.9817 20.8968 6.77513 -21.9525 21.1971 
7.1773 -21.9444 21.4958 7.58322 -21.9695 21.7977 7.99095 -22.0345 22.1032 
8.37709 -22.1244 22.3943 8.73483 -22.2379 22.6668 9.13611 -22.4419 22.9826 
9.59125 -22.7491 23.3517 9.81994 -22.918 23.5393 
LINES 1 129
128 0 1 2 3 4 5 6 7 8 9 10 11 12 13 14 15 16 17 18 19 20 21 22 23 24 25 26 27 28 29 30 31 32 33 34 35 36 37 38 39 40 41 42 43 44 45 46 47 48 49 50 51 52 53 54 55 56 57 58 59 60 61 62 63 64 65 66 67 68 69 70 71 72 73 74 75 76 77 78 79 80 81 82 83 84 85 86 87 88 89 90 91 92 93 94 95 96 97 98 99 100 101 102 103 104 105 106 107 108 109 110 111 112 113 114 115 116 117 118 119 120 121 122 123 124 125 126 127 

CELL_DATA 1
FIELD FieldData 2
Length 1 1 double
58.762913376 
Tortuosity 1 1 double
0.71373288534 
POINT_DATA 128
SCALARS MaximumInscribedSphereRadius float
LOOKUP_TABLE default
0.93 0.93 0.93 0.933568 0.937252 0.99872 1.06169 1.13359 1.20594 
1.13501 1.05446 1.02532 1.00064 1.07301 1.15567 1.23734 1.31888 1.3865 
1.45206 1.4545 1.44623 1.39232 1.32963 1.30165 1.28116 1.28816 1.30176 
1.31206 1.32148 1.26625 1.1923 1.13875 1.09164 1.15828 1.26418 1.36485 
1.46355 1.48601 1.47743 1.4371 1.38282 1.31723 1.24624 1.24157 1.27051 
1.33231 1.41221 1.42113 1.38485 1.33841 1.28652 1.29783 1.34861 1.41664 
1.49603 1.49428 1.43516 1.36386 1.28335 1.33493 1.49318 1.61693 1.71092 
1.61465 1.34322 1.19477 1.16709 1.24126 1.42209 1.56553 1.66721 1.74607 
1.79772 1.79555 1.72483 1.67213 1.64396 1.65469 1.72208 1.76976 1.78672 
1.76576 1.68142 1.5951 1.50522 1.43415 1.39937 1.41406 1.5311 1.63803 
1.72249 1.76143 1.6911 1.63603 1.62061 1.62074 1.6648 1.68335 1.62329 
1.54721 1.41706 1.29342 1.19396 1.10504 1.05935 1.04094 1.14709 1.25662 
1.38349 1.49597 1.52487 1.55439 1.588 1.62661 1.70406 1.76891 1.71751 
1.658 1.50728 1.36306 1.31336 1.26562 1.25383 1.2443 1.32146 1.39858 
1.47429 1.55 
TEXTURE_COORDINATES TCoords 2 float
0 0 0.00787402 0 0.015748 0 0.023622 0 0.0314961 
0 0.0393701 0 0.0472441 0 0.0551181 0 0.0629921 0 
0.0708661 0 0.0787402 0 0.0866142 0 0.0944882 0 0.102362 
0 0.110236 0 0.11811 0 0.125984 0 0.133858 0 
0.141732 0 0.149606 0 0.15748 0 0.165354 0 0.173228 
0 0.181102 0 0.188976 0 0.19685 0 0.204724 0 
0.212598 0 0.220472 0 0.228346 0 0.23622 0 0.244094 
0 0.251969 0 0.259843 0 0.267717 0 0.275591 0 
0.283465 0 0.291339 0 0.299213 0 0.307087 0 0.314961 
0 0.322835 0 0.330709 0 0.338583 0 0.346457 0 
0.354331 0 0.362205 0 0.370079 0 0.377953 0 0.385827 
0 0.393701 0 0.401575 0 0.409449 0 0.417323 0 
0.425197 0 0.433071 0 0.440945 0 0.448819 0 0.456693 
0 0.464567 0 0.472441 0 0.480315 0 0.488189 0 
0.496063 0 0.503937 0 0.511811 0 0.519685 0 0.527559 
0 0.535433 0 0.543307 0 0.551181 0 0.559055 0 
0.566929 0 0.574803 0 0.582677 0 0.590551 0 0.598425 
0 0.606299 0 0.614173 0 0.622047 0 0.629921 0 
0.637795 0 0.645669 0 0.653543 0 0.661417 0 0.669291 
0 0.677165 0 0.685039 0 0.692913 0 0.700787 0 
0.708661 0 0.716535 0 0.724409 0 0.732283 0 0.740157 
0 0.748031 0 0.755906 0 0.76378 0 0.771654 0 
0.779528 0 0.787402 0 0.795276 0 0.80315 0 0.811024 
0 0.818898 0 0.826772 0 0.834646 0 0.84252 0 
0.850394 0 0.858268 0 0.866142 0 0.874016 0 0.88189 
0 0.889764 0 0.897638 0 0.905512 0 0.913386 0 
0.92126 0 0.929134 0 0.937008 0 0.944882 0 0.952756 
0 0.96063 0 0.968504 0 0.976378 0 0.984252 0 
0.992126 0 1 0 
FIELD FieldData 7
Curvature 1 128 double
0 0.055803801824 0.10502723987 0.1517032327 0.19286888617 0.22432927643 0.24192926123 0.24346882746 0.22996961522 
0.20524848288 0.17424180168 0.14143240279 0.11024985223 0.083684177916 0.06570272569 0.06146015604 0.071639145774 0.090721027883 
0.11406342693 0.13947717961 0.16589101224 0.19245172002 0.21813266 0.24156792471 0.26106572207 0.27485372307 0.28151086746 
0.28036999281 0.27179824411 0.25710176343 0.23814238723 0.21694407853 0.19537034112 0.17494516634 0.15709645025 0.14324028993 
0.13506513567 0.13462755318 0.14424770958 0.16637875715 0.20418773535 0.26257885664 0.34880408212 0.47037791526 0.62555700138 
0.78279048795 0.87060721009 0.82977216171 0.68560137983 0.51501996181 0.36905576673 0.25935891704 0.17989397013 0.1216048714 
0.077437208798 0.043264200536 0.021109556267 0.027558057153 0.048218256536 0.069695135897 0.0902167656 0.10921190124 0.12618503266 
0.14051697165 0.15159649875 0.15887404598 0.16203046802 0.16104754776 0.15621362946 0.14808221739 0.13730400116 0.12452437732 
0.11037675601 0.095406034247 0.080161153317 0.065452461361 0.052840572706 0.045441931026 0.047208063051 0.058431694465 0.07582241163 
0.096520829848 0.11868718327 0.14083596173 0.16135469329 0.17850347004 0.19054137657 0.19617793207 0.19486683856 0.18710424834 
0.17416118125 0.15781053136 0.13982040871 0.1217488052 0.10472996066 0.08953813198 0.076638367454 0.066200244013 0.058134916822 
0.052123513745 0.047566018081 0.043960120864 0.040739367124 0.037534006473 0.034141910563 0.030495560705 0.026618258535 0.022534269867 
0.018228606326 0.013645842199 0.0086093227856 0.0029113636348 0.00416057306 0.012046134357 0.021191237524 0.031451912232 0.042483490429 
0.053682344592 0.064207812004 0.072997100572 0.078912552809 0.080805613597 0.077797588031 0.069598854573 0.056432861107 0.039137896005 
0.019028460547 0 
Torsion 1 128 double
0 0 -0.0095065853115 -0.013716165149 -0.018842961104 -0.02531750714 -0.033857061551 -0.045686220713 -0.062885959653 
-0.089108367838 -0.13128525158 -0.20307623433 -0.33201580567 -0.56366932389 -0.88359653173 -0.96143577482 -0.65815294487 -0.36644619241 
-0.19194521679 -0.090909716753 -0.028203796368 0.013859160375 0.044106088476 0.067027098842 0.084993042494 0.099700996617 0.11236174657 
0.12389615958 0.13542281868 0.14813452735 0.16358771402 0.18392784341 0.21198880286 0.25101023537 0.30323447051 0.36687656681 
0.42944131127 0.466238704 0.45469481289 0.3984821703 0.32202672894 0.24695078044 0.18257369442 0.12985222054 0.087575718513 
0.054582565315 0.029199256339 0.0084196843052 -0.011274740206 -0.032238375992 -0.055498842262 -0.083207790417 -0.12176542101 -0.18682902764 
-0.33049165445 -0.79520773282 -2.714631183 -1.4553362977 -0.49701650136 -0.27858036127 -0.20652591615 -0.17705079237 -0.16373089427 
-0.15703294631 -0.15292102469 -0.1494227194 -0.14507040891 -0.13873127204 -0.12939279871 -0.11574049577 -0.09609741 -0.067915368079 
-0.027047375817 0.034078207535 0.1309405522 0.29257006902 0.55504083119 0.84520881806 0.83511922743 0.56136395578 0.33770789089 
0.21022016499 0.14145669974 0.10397784321 0.083766199985 0.073862139397 0.070462665211 0.071757676783 0.076817449008 0.08546577574 
0.097894389795 0.1144192858 0.13551236253 0.16143365209 0.19241408009 0.22699317918 0.26047698362 0.28567917868 0.29363274758 
0.27879178377 0.24162053919 0.1877650651 0.12846671666 0.067077601047 0.0064384839459 -0.050045344823 -0.10382999189 -0.15191519637 
-0.19319913 -0.23875643512 -0.33904523709 -1.6541608003 -1.0356339606 -0.27177626882 -0.17367720922 -0.13064124325 -0.10160500834 
-0.080710459331 -0.064478748522 -0.051068849539 -0.04051926487 -0.031617556247 -0.024433198621 -0.018351649208 -0.012763066663 -0.0088080707471 
0 0 
Abscissas 1 128 double
0 0.50318499 1.00636998 1.5095537577 2.0127374959 2.5159265332 3.0191157085 3.5222999411 4.0254839181 
4.5286673445 5.0318507339 5.5350365081 6.0382224889 6.5414068677 7.0445910768 7.547777014 8.0509631696 8.5541496448 
9.0573361671 9.5605202878 10.063704001 10.566887496 11.070070948 11.573259019 12.076448087 12.579632138 13.082814986 
13.586000974 14.08918779 14.592375214 15.095562813 15.598747916 16.101932228 16.605120174 17.108309374 17.611494184 
18.114677346 18.617868554 19.121063037 19.624238472 20.127405534 20.630597593 21.133801556 21.636988471 22.140166741 
22.643351407 23.146539598 23.649719818 24.152894964 24.656075444 25.159258791 25.662441496 26.165623801 26.668808587 
27.171995007 27.675180225 28.178364594 28.681548055 29.184730829 29.687916375 30.19110416 30.69429039 31.19747528 
31.700656859 32.203835392 32.707024279 33.210223334 33.713412525 34.216591385 34.719765252 35.222933538 35.726117338 
36.229319644 36.73251018 37.235685721 37.738860988 38.242035883 38.745216137 39.248404198 39.751597944 40.25480056 
40.757990746 41.261160155 41.764333015 42.26751207 42.770695816 43.273888611 43.777080623 44.280271016 44.7834606 
45.286648389 45.789830293 46.292998076 46.796173756 47.299369977 47.802563879 48.305751226 48.808935565 49.312110632 
49.81529021 50.318485008 50.821679925 51.324875285 51.828069636 52.33125985 52.834447753 53.337625103 53.84080425 
54.343992608 54.847180094 55.350362508 55.853545562 56.356732868 56.859918695 57.36309305 57.866269757 58.369468189 
58.87266454 59.375837508 59.879011768 60.382204853 60.885397218 61.38857628 61.891755573 62.394943734 62.898132295 
63.40133318 63.904534065 
ParallelTransportNormals 3 128 double
-0.60969528063 0 0.79263589672 -0.53287439497 0.0028023480918 0.84113922373 -0.45605350931 0.0056046961835 0.88964255073 
-0.32694722798 0.024400245335 0.93443342572 -0.1961423528 0.043715365054 0.97910369441 -0.030986742176 0.090790495362 0.97993180917 
0.13506332729 0.13858846862 0.97961831802 0.25229006952 0.19014303108 0.93935143065 0.36699187055 0.24189186884 0.89701831836 
0.42341167691 0.27561505482 0.85996344262 0.47591846324 0.30812800876 0.82326294469 0.49603933314 0.3229648858 0.80554146246 
0.51335517112 0.33627078995 0.78946380419 0.5129345748 0.33570890869 0.79005227735 0.51063413798 0.3336772154 0.79240715227 
0.49452259996 0.31823147326 0.80824132784 0.47666513107 0.30108999365 0.8257794897 0.44436764537 0.26868886771 0.8527374677 
0.40993931503 0.23403594829 0.8810854832 0.3593433173 0.18139565417 0.91165405239 0.30600635069 0.12570588896 0.94259908088 
0.2372200792 0.050245063207 0.96412047968 0.16546363817 -0.029016800974 0.98383016088 0.086171298481 -0.125267019 0.98009126629 
0.0052525320813 -0.22518372906 0.97129160967 -0.064926054669 -0.32816795319 0.93336921995 -0.13252765958 -0.43188819183 0.88845916739 
-0.17488977317 -0.51991321855 0.82895664877 -0.21058217089 -0.60379067342 0.76559796676 -0.22478264053 -0.66453906473 0.70855837629 
-0.23276677366 -0.71859759361 0.65334652315 -0.23130387946 -0.7544071121 0.61256538252 -0.22685184401 -0.78444244704 0.57635027485 
-0.22116929554 -0.80278914772 0.55322423299 -0.21506190737 -0.81710029899 0.53461724537 -0.21171573713 -0.82355022623 0.52621803505 
-0.20940579347 -0.82705000268 0.52164958727 -0.21176842198 -0.82441916643 0.5247945084 -0.21603315578 -0.81929268742 0.53107937887 
-0.22908128468 -0.8051498659 0.54622215762 -0.2459903138 -0.7870437479 0.56525859021 -0.27641636268 -0.7552543579 0.59146581416 
-0.31327937001 -0.71694883825 0.62108785048 -0.41674335288 -0.59942951192 0.65322822536 -0.55397870807 -0.44174322202 0.68664557477 
-0.71016467851 -0.21814404115 0.57372207156 -0.8767945578 0.041780515763 0.38014838861 -0.9467111919 0.18407418501 0.18433840356 
-0.95504126738 0.25146103518 -0.012895648586 -0.95117510041 0.27721840757 -0.12197383871 -0.94075656145 0.28061054528 -0.18369072027 
-0.93398863631 0.28117952898 -0.21964751703 -0.92949987174 0.27998595392 -0.23952171159 -0.92801087784 0.27966377317 -0.24612978488 
-0.92849710161 0.27991536744 -0.24400269804 -0.93100735345 0.28166929852 -0.23136700441 -0.93494848797 0.28448530368 -0.21130227172 
-0.93960090879 0.2884470462 -0.18081570093 -0.94479073861 0.29327444516 -0.14245495964 -0.94869815393 0.29754068375 -0.093683189216 
-0.95156997508 0.30135376588 -0.036504151778 -0.95108677217 0.30131673083 0.027454341827 -0.9477101241 0.29795927164 0.09725958473 
-0.94139150581 0.28881917574 0.16411891917 -0.93236465461 0.27435586925 0.22826639536 -0.92382789999 0.25788825603 0.28019786529 
-0.91577246108 0.23945224646 0.32013219841 -0.91023027656 0.22506413828 0.3472788018 -0.90731980645 0.21491472575 0.36103493713 
-0.90584631053 0.20993780477 0.36792342748 -0.90597836308 0.21074017057 0.36713861578 -0.90625676499 0.21410713032 0.3644303427 
-0.90670976967 0.22053379053 0.35942727526 -0.90697663242 0.2265467188 0.3550209702 -0.90700636013 0.23203257432 0.35137490905 
-0.9070374008 0.23468149545 0.34958031599 -0.9070702295 0.23346697007 0.35030712349 -0.90719498458 0.22747710943 0.35370437142 
-0.90745367876 0.21452946378 0.36099251901 -0.90717837695 0.19502287703 0.37183409065 -0.90607006332 0.16528461116 0.38821885804 
-0.9022282237 0.12735010728 0.40934687625 -0.89381695658 0.075714575623 0.43840382614 -0.87845109734 0.016862235909 0.47264546725 
-0.85060413238 -0.054941797134 0.51619184949 -0.81360216939 -0.12668755716 0.56206078544 -0.75893858023 -0.19832089812 0.61241034227 
-0.70131196047 -0.26160836174 0.65983091454 -0.6375556373 -0.30763047795 0.70119221542 -0.57901399772 -0.34529902441 0.73744201062 
-0.53204956976 -0.36442166241 0.76234366131 -0.49188812052 -0.37949872046 0.78336136758 -0.4680516796 -0.38486765955 0.7950588293 
-0.44927772248 -0.3889237791 0.80428148478 -0.44367204326 -0.38956505859 0.80706679885 -0.44129031499 -0.3899587262 0.80818831718 
-0.44801947165 -0.38965264271 0.80460794898 -0.45644245471 -0.3894100873 0.79994469524 -0.47008484359 -0.38936328917 0.79194460657 
-0.48423634749 -0.38940559032 0.78341036927 -0.50010567049 -0.38974852385 0.77307384632 -0.51570930419 -0.39013479478 0.76270214167 
-0.53032717657 -0.39068185621 0.75219990582 -0.54414802702 -0.39122795814 0.74214532874 -0.5546993183 -0.39177012399 0.73392714631 
-0.56418643173 -0.39227336314 0.72650078049 -0.568814385 -0.39259885837 0.72268994164 -0.57241663991 -0.39284484961 0.71972959277 
-0.57076211201 -0.39268337679 0.72112807035 -0.56834553204 -0.39241470877 0.72316792877 -0.56150392304 -0.39152358745 0.72893211121 
-0.55442802422 -0.39057155582 0.73486886688 -0.54579144623 -0.38921378122 0.7419551879 -0.53749930065 -0.38790762821 0.74873950438 
-0.53187860164 -0.38700185659 0.75318144854 -0.52698316198 -0.38620661107 0.75705497029 -0.52878482858 -0.386431973 0.75567963144 
-0.53139199556 -0.38667637719 0.75370443354 -0.54305156705 -0.38713478293 0.74498787741 -0.55545856587 -0.38740856826 0.73571312274 
-0.57874602785 -0.38499479388 0.71831254972 -0.60232450965 -0.38225942176 0.70067172925 -0.6312817905 -0.37358009121 0.67859051432 
-0.66031358039 -0.36467915272 0.65642778553 -0.69221895634 -0.34723147248 0.63112131574 -0.72312085961 -0.33033254836 0.60661077298 
-0.72312085961 -0.33033254836 0.60661077298 -0.72312085961 -0.33033254836 0.60661077298 
FrenetTangent 3 128 double
-0.93583078201 -0.14485899044 -0.32130456007 -0.93583078201 -0.14485899044 -0.32130456007 -0.94359700283 -0.16124785257 -0.28917784543 
-0.95318132747 -0.18687837739 -0.23774319976 -0.96077004881 -0.22026132221 -0.16854039056 -0.96211405835 -0.25914334594 -0.084742344705 
-0.95369370119 -0.30065892398 0.0085167919462 -0.93392239585 -0.34182846304 0.10460525985 -0.90373957468 -0.38024148659 0.1966499251 
-0.86620470997 -0.4145659537 0.27897037559 -0.8253782585 -0.44462992183 0.34792953741 -0.78516544828 -0.47113482686 0.40192933926 
-0.74860420082 -0.49523373495 0.44083477436 -0.71764229929 -0.51817947048 0.46527364706 -0.69320890782 -0.54110997815 0.47608969918 
-0.67539619725 -0.56493644881 0.47401137702 -0.66362754049 -0.59029659637 0.45950888546 -0.65677857045 -0.61753221607 0.43277693043 
-0.65325550091 -0.64666732375 0.39380023225 -0.65104552217 -0.67738030306 0.34248452971 -0.64777446885 -0.70897090703 0.27883416307 
-0.64079463371 -0.74033798928 0.20317947491 -0.62734279703 -0.76998924275 0.11643702616 -0.60478981042 -0.79612486963 0.020358712269 
-0.57098842421 -0.81682226891 -0.082301885919 -0.52467609004 -0.83032597289 -0.1878131499 -0.46580268828 -0.8354076838 -0.29175650368 
-0.39565220762 -0.83167990221 -0.38957396071 -0.31667278577 -0.8197363901 -0.47723222597 -0.23202792828 -0.80106331606 -0.5517794887 
-0.14504101992 -0.77775371239 -0.61160629935 -0.058704901514 -0.75214826473 -0.65637391965 0.024632256889 -0.72652237885 -0.68670116131 
0.10336400665 -0.7028956632 -0.70374254439 0.17658356897 -0.68295060189 -0.70879949108 0.24396691682 -0.6680310803 -0.70300399661 
0.30561114871 -0.65918756567 -0.68707610863 0.3618784955 -0.65721662589 -0.66114314725 0.41324514564 -0.66268415563 -0.62456237437 
0.46012153551 -0.67589305221 -0.57572281051 0.50259811211 -0.69676036394 -0.51178133313 0.54004403441 -0.72448170664 -0.42834413458 
0.57041855768 -0.75676982597 -0.31925240729 0.58916492261 -0.7883696194 -0.17708200692 0.58799789634 -0.80885244549 0.0040243412046 
0.55547965904 -0.80164206283 0.2209351749 0.48331734247 -0.74987682292 0.4517622128 0.37733573263 -0.65113831026 0.65851093065 
0.2585867905 -0.52447114094 0.81121075813 0.14876657163 -0.39589992852 0.90616320482 0.058977703757 -0.28214621003 0.95755686339 
-0.009006290058 -0.18880151335 0.98197396875 -0.057529945021 -0.11547034574 0.9916435371 -0.089786855818 -0.059867943722 0.99416002225 
-0.10862482647 -0.019677239124 0.99388804869 -0.11632938118 0.0068979525279 0.99318673638 -0.114727273 0.021082667559 0.99317328496 
-0.10535433706 0.023636633079 0.99415379758 -0.089606033189 0.015013976257 0.9958641169 -0.068846560798 -0.0044682686126 0.99761725408 
-0.044490986249 -0.034484997136 0.99841441151 -0.018043039436 -0.074529131363 0.99705559389 0.0089137162099 -0.12376119919 0.99227199459 
0.03475813485 -0.18091286001 0.98288473848 0.057934792047 -0.2442451365 0.96798133927 0.077091288137 -0.3116043675 0.94707953808 
0.091220203679 -0.38057432929 0.92024021555 0.09978598944 -0.44870688141 0.88809058709 0.10279084101 -0.5137715526 0.85174693116 
0.10076280367 -0.57397039864 0.81265296337 0.094680208736 -0.62806019967 0.77238335279 0.085855745522 -0.67536711795 0.73246709615 
0.075810223438 -0.71573271926 0.69424742319 0.06615285555 -0.74940267362 0.6588015122 0.058488534022 -0.77688246055 0.62692322806 
0.054359828624 -0.79880165123 0.59913348348 0.055200947959 -0.81578961571 0.57570839688 0.062307767197 -0.82836303962 0.55671574142 
0.076815117896 -0.83683304524 0.5420423342 0.099659416129 -0.84122549571 0.53142042315 0.13151907717 -0.84123930262 0.5244226998 
0.17273210168 -0.83622400893 0.52047384942 0.22317406698 -0.8252169089 0.51885488249 0.28210786997 -0.80706121333 0.51871702077 
0.34805594909 -0.78061361983 0.51913334784 0.41874914602 -0.74504387806 0.5191904973 0.49123731896 -0.70015836061 0.51813527821 
0.56220333558 -0.64665952605 0.51551805675 0.62843629601 -0.58620606041 0.51130252943 0.68733032465 -0.52121647996 0.50587587987 
0.73722816094 -0.45446486999 0.49995631875 0.77750195293 -0.38863121001 0.49442541985 0.80840324061 -0.32594786927 0.49014506739 
0.8307824799 -0.2680206923 0.48781695295 0.84579790631 -0.21581302722 0.48790433382 0.85467990705 -0.16973737977 0.49062356077 
0.85859270944 -0.12977799686 0.49595990849 0.85857211392 -0.095617464177 0.50369755383 0.85550804124 -0.066741861894 0.51347007239 
0.85015624879 -0.042515089629 0.52481122302 0.84316203214 -0.022261287024 0.53719849465 0.83508893445 -0.0052885970963 0.55008954026 
0.82643577796 0.0090803793306 0.56295777073 0.81764322702 0.021440349086 0.57532587699 0.80910436402 0.032302923727 0.58677649002 
0.80116032456 0.042066543543 0.59696946343 0.79408838244 0.050981750692 0.60566038502 0.78810478495 0.059146022038 0.61269290515 
0.78335837173 0.066476522588 0.61800528589 0.77992553913 0.072714364079 0.62163395553 0.77782016213 0.077446428629 0.62369691844 
0.7769923513 0.080097341796 0.62439354726 0.77732938914 0.079984289981 0.62398840866 0.77866481804 0.076368741387 0.6227751733 
0.78076808329 0.068511920781 0.62105339289 0.78333797301 0.05576162422 0.61908986528 0.786002302 0.037627907116 0.61707740345 
0.78832748999 0.013901263765 0.61509879157 0.78983748811 -0.015234987269 0.61312693428 0.79007191329 -0.049102458373 0.61104445044 
0.78868647613 -0.086469363506 0.60868439404 0.78555488918 -0.12555489222 0.60592036204 0.78087484825 -0.16412221919 0.60274237327 
0.77519696729 -0.19971661106 0.59931872754 0.76936562326 -0.22994402358 0.59598849299 0.76436133211 -0.25272926525 0.59319446429 
0.76107285958 -0.26653635896 0.59137675958 0.76107285958 -0.26653635896 0.59137675958 
FrenetNormal 3 128 double
-0.22833807234 -0.445256659 0.86579918707 -0.22833807234 -0.445256659 0.86579918707 -0.19285310069 -0.44227279613 0.87590093924 
-0.13624580338 -0.43647492783 0.88934060879 -0.060387517508 -0.42697532151 0.90224465781 0.031157232212 -0.4132785986 0.9100714405 
0.13292588725 -0.39590393689 0.9086202624 0.23819000046 -0.37684357788 0.89512817043 0.34040425471 -0.35977594704 0.86872677598 
0.43472973831 -0.34995619004 0.82978353784 0.51883473011 -0.35434816873 0.77797679795 0.59247515965 -0.38257094161 0.7089518036 
0.65489857695 -0.44858381374 0.60817794761 0.69538823096 -0.56940274762 0.43842413169 0.66552143994 -0.73413572165 0.13463266759 
0.49128712191 -0.82404724533 -0.28210477008 0.26040161129 -0.75813642717 -0.59784626672 0.1100780563 -0.64627630614 -0.75512234615 
0.044269665181 -0.55185009918 -0.83276747342 0.033865025225 -0.47668090401 -0.87842385886 0.059512468758 -0.41197766286 -0.90924841015 
0.11030471837 -0.35069602921 -0.92997051792 0.17928419161 -0.28830763664 -0.94060400026 0.26125314749 -0.22248491813 -0.93928017872 
0.35139779622 -0.15256793863 -0.92371132553 0.44498983224 -0.079420478742 -0.89200697125 0.53753959715 -0.0052331434444 -0.84322226945 
0.62504301543 0.066945920076 -0.77771426157 0.70441931544 0.13369879648 -0.6970782308 0.7739139826 0.19160710777 -0.60360903223 
0.83293167883 0.23765573199 -0.49974450618 0.88189129768 0.26902835733 -0.38715821318 0.92143768665 0.28292624626 -0.26628054527 
0.95158151886 0.27581447824 -0.13571656698 0.96987738919 0.24349263784 0.0070132207198 0.96961863263 0.1813954182 0.16412010696 
0.9388675518 0.088486753171 0.33271281114 0.86550767253 -0.026608476788 0.50018842226 0.74938959681 -0.14217049013 0.64668600103 
0.60790383872 -0.23277986928 0.75912216101 0.4627178928 -0.28324605325 0.84003799021 0.32511825045 -0.28985970069 0.90015525169 
0.19436046707 -0.2532842486 0.94766613227 0.063494215768 -0.17330824568 0.98281877096 -0.074300886933 -0.049057658166 0.99602847569 
-0.21934086002 0.11502919165 0.96884357468 -0.35948397654 0.30052568508 0.88343397219 -0.47350250905 0.47544757033 0.74144789553 
-0.5467228699 0.61286849887 0.57051407224 -0.58011057376 0.70717342818 0.40419978315 -0.58316945399 0.76878905526 0.26244385389 
-0.56450749538 0.8115262172 0.15085253214 -0.52714230475 0.84704783667 0.068051105282 -0.46659467355 0.88440137793 0.011118153009 
-0.36212625883 0.93188957467 -0.021128021466 -0.132238643 0.99096542146 -0.022371293462 0.57515476934 0.81656942192 0.049105707246 
0.96650067191 -0.23285418543 0.107960083 0.79385927537 -0.60274739924 0.08051722555 0.6775481051 -0.73419271052 0.043469864209 
0.59106712181 -0.80662094092 -0.0015215742394 0.5160791737 -0.85480165021 -0.054556624453 0.4444962485 -0.88839433771 -0.11479802174 
0.37280475905 -0.91014361338 -0.180707539 0.29973433452 -0.92062051134 -0.25023429582 0.22518124451 -0.91992044311 -0.32099810819 
0.14993237432 -0.90831038919 -0.39050290653 0.075559393724 -0.8865509626 -0.45641885231 0.0041248101405 -0.85605514315 -0.51686804683 
-0.061839385385 -0.81884396253 -0.57067543792 -0.11927963922 -0.77743641853 -0.6175475551 -0.16446075535 -0.7347032657 -0.6581517844 
-0.19226707468 -0.69367772215 -0.69415026456 -0.19515795789 -0.65721357931 -0.72799978203 -0.15994685994 -0.62717801857 -0.76227602285 
-0.061804858442 -0.60156186518 -0.79643171825 0.14076895513 -0.56446998431 -0.81336199695 0.47042159526 -0.46757826428 -0.74838097884 
0.79432734742 -0.27721748266 -0.5405502127 0.9495351292 -0.079229901625 -0.30348914496 0.98738593856 0.064120741165 -0.14476718856 
0.98414417004 0.16814294675 -0.056464166 0.96722761898 0.25359292135 -0.012702886619 0.94306157387 0.33258674598 0.004574306991 
0.9120723596 0.40999872992 0.0050052302271 0.87317234222 0.48738751942 -0.0048442432222 0.82554729791 0.56395630658 -0.020614149783 
0.76910558387 0.63796075138 -0.038505591175 0.70472251223 0.7073312786 -0.055214518672 0.63397786667 0.77038823903 -0.067631543883 
0.558697796 0.82616511838 -0.072855815966 0.48043915144 0.87436995122 -0.068230566261 0.40006451453 0.91504887171 -0.05132198947 
0.31752278687 0.94804224361 -0.01987923908 0.23195958427 0.97232307311 0.027974859369 0.14188701001 0.98543323583 0.093751875228 
0.046667258999 0.98319656067 0.17648424866 -0.052496830758 0.96089517435 0.27189068882 -0.15136990352 0.91610011959 0.37127849815 
-0.24348018911 0.85202012084 0.46344267303 -0.32299110132 0.77779054249 0.53918329025 -0.3860524279 0.70673984998 0.59285943306 
-0.432973589 0.64940942993 0.62514099493 -0.46589401842 0.61172537766 0.63932372545 -0.48595840112 0.59823104011 0.63715308602 
-0.49469557489 0.60790822622 0.62106672482 -0.49190742132 0.63920276471 0.59114035088 -0.47637185479 0.68897424762 0.54624567923 
-0.44748289269 0.75038788115 0.48649469531 -0.40307002166 0.81818935087 0.41000090703 -0.33361799594 0.89189987521 0.30530909811 
-0.14335781646 0.9883242418 0.05161133139 0.42305593958 -0.80056720942 -0.42440053626 0.29490618084 -0.92064170718 -0.25583039598 
0.22716038783 -0.95707832189 -0.17999789988 0.1719633418 -0.97653718977 -0.12962918679 0.1220926098 -0.98793539905 -0.095273511228 
0.075401287421 -0.99439151561 -0.07416306053 0.029787085511 -0.99755882778 -0.063159438403 -0.014884709716 -0.99802957527 -0.060954181916 
-0.058542310678 -0.99612365294 -0.065654138535 -0.10064516194 -0.99208466758 -0.075090370492 -0.13959656089 -0.98631590473 -0.087713945701 
-0.17435137476 -0.97950117885 -0.10089122237 -0.20271117168 -0.97262950803 -0.11357825928 -0.22379763795 -0.96677699622 -0.12351864972 
-0.2364037288 -0.96295063803 -0.12976650465 -0.2364037288 -0.96295063803 -0.12976650465 
FrenetBinormal 3 128 double
-0.2684817911 0.88360759419 0.38360806475 -0.2684817911 0.88360759419 0.38360806475 -0.26913263979 0.88226634518 0.38623013652 
-0.26996747587 0.8800943753 0.39057835646 -0.27069218874 0.87702737971 0.39692406603 -0.2708611556 0.87295219009 0.40569533914 
-0.26981295894 0.86767752315 0.41753644512 -0.26656046634 0.86089617241 0.43336277888 -0.2595760477 0.85204323823 0.4545795812 
-0.24637259396 0.84003912711 0.48335784866 -0.22262356843 0.82264306229 0.5231607199 -0.18024539946 0.79477761013 0.57951716662 
-0.1034388922 0.74398663282 0.66013959566 0.037745708628 0.63817752027 0.76896340232 0.27666337506 0.4101764666 0.86902971362 
0.54997903649 0.042343196229 0.83410437785 0.70127704107 -0.2770903934 0.65683439736 0.7460058518 -0.4483089317 0.49243717451 
0.75584221057 -0.52657652856 0.38912685887 0.75828285496 -0.56029567264 0.33328046911 0.75950411689 -0.57239379652 0.30906122069 
0.7597467384 -0.57350846264 0.30638690699 0.75782464572 -0.56920582631 0.31891461811 0.75231381626 -0.56274830356 0.34254673944 