# vtk DataFile Version 4.2
vtk output
ASCII
DATASET POLYDATA
POINTS 128 float
0 0 0 -0.325511 -0.0595583 0.0502792 -0.968241 -0.161538 0.156892 
-1.51082 -0.211908 0.263451 -1.96263 -0.224222 0.36451 -2.44156 -0.23834 0.468238 
-2.94432 -0.258915 0.571197 -3.44088 -0.2831 0.667506 -3.93181 -0.318124 0.754752 
-4.42466 -0.373895 0.831603 -4.91685 -0.458905 0.897066 -5.40248 -0.581168 0.950883 
-5.87471 -0.748483 0.996108 -6.32627 -0.967328 1.03734 -6.74917 -1.23726 1.08176 
-7.13614 -1.55452 1.137 -7.48565 -1.90996 1.20817 -7.79911 -2.29279 1.29848 
-8.08333 -2.69404 1.40508 -8.34712 -3.10602 1.52219 -8.59907 -3.52463 1.64019 
-8.84777 -3.94766 1.74642 -9.10206 -4.37615 1.81776 -9.36842 -4.80963 1.82555 
-9.63521 -5.22717 1.73276 -9.88285 -5.60091 1.50602 -10.0916 -5.91806 1.16677 
-10.2442 -6.17513 0.759239 -10.3416 -6.38754 0.313019 -10.3924 -6.57803 -0.150357 
-10.3998 -6.75865 -0.619809 -10.3644 -6.93618 -1.08925 -10.2857 -7.11572 -1.55272 
-10.163 -7.30131 -2.00427 -9.9956 -7.49454 -2.43783 -9.7834 -7.6956 -2.8475 
-9.52987 -7.90311 -3.22969 -9.24083 -8.11502 -3.58256 -8.92484 -8.33072 -3.9092 
-8.59199 -8.5506 -4.21561 -8.25157 -8.77682 -4.50831 -7.91216 -9.01267 -4.79394 
-7.57973 -9.26217 -5.07678 -7.25863 -9.52962 -5.35909 -6.95289 -9.81762 -5.63598 
-6.66587 -10.1283 -5.89828 -6.39389 -10.473 -6.14227 -6.1307 -10.8676 -6.36246 
-5.90098 -11.306 -6.47752 -5.75038 -11.7623 -6.36098 -5.70454 -12.161 -6.02488 
-5.7712 -12.3993 -5.58242 -5.92648 -12.4891 -5.10625 -6.1277 -12.5156 -4.63823 
-6.3577 -12.5145 -4.19271 -6.61715 -12.4864 -3.76514 -6.9017 -12.4381 -3.35258 
-7.2031 -12.3817 -2.95332 -7.51327 -12.326 -2.56186 -7.82423 -12.2774 -2.1698 
-8.12528 -12.2434 -1.76843 -8.40364 -12.2326 -1.34925 -8.64848 -12.2516 -0.909674 
-8.85104 -12.3048 -0.452263 -9.01053 -12.3938 0.0170129 -9.1331 -12.5173 0.489451 
-9.22601 -12.6738 0.958488 -9.29717 -12.8617 1.41968 -9.35189 -13.0793 1.86989 
-9.39283 -13.3244 2.30721 -9.42057 -13.5944 2.73057 -9.43371 -13.8866 3.13975 
-9.4298 -14.1981 3.5346 -9.4054 -14.5262 3.91501 -9.35691 -14.8689 4.28003 
-9.28062 -15.2243 4.62777 -9.17354 -15.5907 4.95553 -9.03362 -15.9662 5.25979 
-8.85987 -16.3484 5.5373 -8.65257 -16.734 5.78526 -8.41212 -17.1186 6.00322 
-8.13892 -17.4958 6.19375 -7.83217 -17.8577 6.36147 -7.48947 -18.1937 6.51354 
-7.1103 -18.4925 6.65732 -6.69693 -18.7414 6.8002 -6.25527 -18.9335 6.94765 
-5.79622 -19.0709 7.10237 -5.32879 -19.16 7.26561 -4.85864 -19.2133 7.43674 
-4.38935 -19.2419 7.61491 -3.92171 -19.2543 7.79911 -3.45598 -19.2564 7.98841 
-2.99202 -19.2511 8.18194 -2.52964 -19.2391 8.37891 -2.06873 -19.2175 8.57857 
-1.60946 -19.1828 8.78025 -1.15252 -19.1305 8.98335 -0.698723 -19.0575 9.18731 
-0.249041 -18.9637 9.39171 0.196008 -18.8509 9.59661 0.636868 -18.725 9.80296 
1.07445 -18.5933 10.0124 1.51041 -18.4658 10.228 1.9458 -18.3536 10.4533 
2.38013 -18.2693 10.6927 2.81036 -18.2257 10.9509 3.22796 -18.2362 11.2321 
3.62163 -18.3108 11.5387 3.97524 -18.4511 11.8693 4.27517 -18.6538 12.2203 
4.5161 -18.9066 12.5843 4.69723 -19.1968 12.9538 4.82632 -19.5152 13.3222 
4.91306 -19.8543 13.6835 4.96858 -20.2117 14.0331 5.00403 -20.5864 14.3664 
5.02976 -20.9795 14.6795 5.05504 -21.3912 14.9688 5.08607 -21.8182 15.2306 
5.12827 -22.2584 15.464 5.1864 -22.7151 15.6755 5.26171 -23.1847 15.87 
5.34407 -23.6366 16.0411 5.43134 -24.0644 16.1937 5.55952 -24.5712 16.3824 
5.73202 -25.1625 16.6181 5.82306 -25.4603 16.7399 
LINES 1 129
128 0 1 2 3 4 5 6 7 8 9 10 11 12 13 14 15 16 17 18 19 20 21 22 23 24 25 26 27 28 29 30 31 32 33 34 35 36 37 38 39 40 41 42 43 44 45 46 47 48 49 50 51 52 53 54 55 56 57 58 59 60 61 62 63 64 65 66 67 68 69 70 71 72 73 74 75 76 77 78 79 80 81 82 83 84 85 86 87 88 89 90 91 92 93 94 95 96 97 98 99 100 101 102 103 104 105 106 107 108 109 110 111 112 113 114 115 116 117 118 119 120 121 122 123 124 125 126 127 

CELL_DATA 1
FIELD FieldData 2
Length 1 1 double
58.136753957 
Tortuosity 1 1 double
0.87405433568 
POINT_DATA 128
SCALARS MaximumInscribedSphereRadius float
LOOKUP_TABLE default
0.93 1.03568 1.14136 1.13067 1.10958 1.02758 0.943651 0.952872 0.967363 
1.02999 1.0964 1.16164 1.22676 1.23651 1.23962 1.23886 1.23755 1.18894 
1.13271 1.04499 0.95144 0.957713 0.985088 1.10138 1.23879 1.28877 1.31656 
1.29923 1.27003 1.25593 1.24619 1.25391 1.26716 1.32414 1.39631 1.52429 
1.67335 1.87805 2.10555 2.13986 2.08807 2.04208 1.99891 1.98268 1.98061 
1.94748 1.89669 1.73667 1.51089 1.43876 1.4647 1.49839 1.53617 1.60438 
1.69015 1.72079 1.71742 1.58985 1.37988 1.338 1.41645 1.56142 1.75762 
1.85298 1.86542 1.70554 1.39441 1.23569 1.22022 1.21926 1.23291 1.25709 
1.29266 1.35432 1.44627 1.50892 1.53505 1.55 1.55 1.55 1.55 
1.55 1.55 1.51269 1.41376 1.35532 1.3685 1.39803 1.45848 1.47866 
1.41647 1.44391 1.6704 1.87636 2.03256 2.11574 2.00546 1.94355 2.02229 
2.08189 2.08021 2.05918 1.96954 1.96121 2.27472 2.49651 2.31118 2.11702 
1.87909 1.69522 1.80805 1.90171 1.87783 1.84375 1.73782 1.63835 1.59253 
1.55078 1.55038 1.55052 1.55774 1.56941 1.66028 1.75014 1.80744 1.86 
1.86 1.86 
TEXTURE_COORDINATES TCoords 2 float
0 0 0.00787402 0 0.015748 0 0.023622 0 0.0314961 
0 0.0393701 0 0.0472441 0 0.0551181 0 0.0629921 0 
0.0708661 0 0.0787402 0 0.0866142 0 0.0944882 0 0.102362 
0 0.110236 0 0.11811 0 0.125984 0 0.133858 0 
0.141732 0 0.149606 0 0.15748 0 0.165354 0 0.173228 
0 0.181102 0 0.188976 0 0.19685 0 0.204724 0 
0.212598 0 0.220472 0 0.228346 0 0.23622 0 0.244094 
0 0.251969 0 0.259843 0 0.267717 0 0.275591 0 
0.283465 0 0.291339 0 0.299213 0 0.307087 0 0.314961 
0 0.322835 0 0.330709 0 0.338583 0 0.346457 0 
0.354331 0 0.362205 0 0.370079 0 0.377953 0 0.385827 
0 0.393701 0 0.401575 0 0.409449 0 0.417323 0 
0.425197 0 0.433071 0 0.440945 0 0.448819 0 0.456693 
0 0.464567 0 0.472441 0 0.480315 0 0.488189 0 
0.496063 0 0.503937 0 0.511811 0 0.519685 0 0.527559 
0 0.535433 0 0.543307 0 0.551181 0 0.559055 0 
0.566929 0 0.574803 0 0.582677 0 0.590551 0 0.598425 
0 0.606299 0 0.614173 0 0.622047 0 0.629921 0 
0.637795 0 0.645669 0 0.653543 0 0.661417 0 0.669291 
0 0.677165 0 0.685039 0 0.692913 0 0.700787 0 
0.708661 0 0.716535 0 0.724409 0 0.732283 0 0.740157 
0 0.748031 0 0.755906 0 0.76378 0 0.771654 0 
0.779528 0 0.787402 0 0.795276 0 0.80315 0 0.811024 
0 0.818898 0 0.826772 0 0.834646 0 0.84252 0 
0.850394 0 0.858268 0 0.866142 0 0.874016 0 0.88189 
0 0.889764 0 0.897638 0 0.905512 0 0.913386 0 
0.92126 0 0.929134 0 0.937008 0 0.944882 0 0.952756 
0 0.96063 0 0.968504 0 0.976378 0 0.984252 0 
0.992126 0 1 0 
FIELD FieldData 7
Curvature 1 128 double
0 0.0039521664722 0.0087605970561 0.015610057125 0.024987406959 0.037023676695 0.051509044119 0.067932102885 0.085500584459 
0.10315569079 0.11958693441 0.13332424346 0.14294784109 0.14744035973 0.14660208713 0.1414264877 0.13436506432 0.12936316073 
0.13134946611 0.14430549845 0.16907503412 0.20316414752 0.24189165308 0.27882117541 0.3065467191 0.31893955981 0.31399435102 
0.29484616131 0.26784728241 0.23934051306 0.21369080797 0.19254409831 0.17565272012 0.16159148331 0.14890368634 0.13673415162 
0.12508035776 0.11504732837 0.10849255852 0.10777401431 0.11504641552 0.13204248136 0.16086291493 0.20538359328 0.27287262659 
0.37505446867 0.52662108075 0.73226736719 0.95010731507 1.0645268388 0.98287658126 0.76708086287 0.54220217449 0.36729752227 
0.24391156021 0.15713619275 0.0935454063 0.044480296324 0.010763512644 0.03459912179 0.064438258871 0.090501991913 0.11212627369 
0.1288417525 0.14053608698 0.14755709663 0.15068328402 0.15107533156 0.14984661564 0.14806843733 0.14648224932 0.14561927072 
0.1457179014 0.14679801354 0.14867020356 0.15106836521 0.15365924772 0.15625794815 0.15873557674 0.16108506968 0.16331176478 
0.16523319861 0.16644169942 0.16628725945 0.16401029444 0.15911357975 0.15144384165 0.14141525483 0.12968502732 0.11724882324 
0.10499593082 0.093504905553 0.08318345141 0.073957584578 0.065583895514 0.057522826573 0.049338023797 0.04090746781 0.033171072528 
0.0299241777 0.036420121456 0.052418394375 0.074529368956 0.10065431228 0.12941035244 0.15920539808 0.18789173822 0.2127964419 
0.23086716427 0.23966889938 0.23808347417 0.22688255505 0.20847578747 0.18586261539 0.16198599114 0.13912708652 0.11878121162 
0.10166775002 0.087814529416 0.076681195023 0.067365681306 0.058905153254 0.050456188443 0.041489986582 0.031740244829 0.021226778517 
0.010129843003 0 
Torsion 1 128 double
0 0 0.085701980667 0.085335903372 0.081347148979 0.0778707878 0.075606877486 0.073598861304 0.070537325692 
0.064795512224 0.054475609068 0.03738239368 0.010569225397 -0.030117737273 -0.090494977376 -0.17732170677 -0.29255081042 -0.41549410793 
-0.48549012467 -0.44933823211 -0.3376623417 -0.21571346968 -0.11416068748 -0.035083142211 0.028554223066 0.084067689255 0.13670614025 
0.18885355259 0.23902611897 0.28223534774 0.31130545817 0.32137848434 0.31421248049 0.29895988938 0.28739171747 0.28965538645 
0.31211295968 0.35313470205 0.39603360739 0.40735522861 0.36212841341 0.273537954 0.17740973177 0.098378545681 0.043776064715 
0.012163501176 -0.0013681849261 -0.0022046682376 0.0038096018693 0.01221062723 0.021527427434 0.030494866075 0.035864752615 0.034073992738 
0.021309301512 -0.010507405148 -0.094737767592 -0.47555157207 -7.3743675662 -0.5962551686 -0.146259938 -0.071470228491 -0.052193582806 
-0.047273984836 -0.045855748162 -0.04323715915 -0.036805044287 -0.024826129747 -0.0071021937232 0.015599012405 0.041671696652 0.068432396782 
0.09405046701 0.117565452 0.13921180745 0.15970624576 0.18011582932 0.20047064144 0.21937711625 0.23488764687 0.24401871673 
0.24486392692 0.23768041443 0.2237994178 0.20606487265 0.18730642922 0.16937791544 0.15308690993 0.13869791282 0.12598821061 
0.11461585006 0.10455768447 0.097435515762 0.096978119617 0.10946327931 0.14700962378 0.23162746566 0.41413704389 0.77729305321 
1.1527571527 0.90778230226 0.4887170592 0.25683870732 0.14162931927 0.081264077923 0.048432348227 0.031735205289 0.025640189949 
0.027659715997 0.036923177768 0.052991104823 0.076367646017 0.10740502128 0.14595001208 0.19164452719 0.24203412553 0.29171076443 
0.33244245674 0.35452633967 0.35230008952 0.32748904268 0.28757692793 0.24050375246 0.1911933495 0.14329119001 0.098170122718 
0 0 
Abscissas 1 128 double
0 0.50271320696 1.0054264139 1.5081403709 2.0108543948 2.5135674663 3.0162805078 3.5189928223 4.0217050958 
4.524417681 5.0271302908 5.5298432149 6.0325561703 6.5352685158 7.0379807882 7.540693894 8.0434071164 8.5461230548 
9.0488394315 9.5515536123 10.054267386 10.556977036 11.059685814 11.562399809 12.065115044 12.56782155 13.07052584 
13.573241984 14.075961246 14.578675775 15.08138894 15.584104622 16.086821103 16.589536493 17.092251504 17.594964797 
18.097677441 18.600390535 19.103103814 19.605815377 20.108526175 20.611237807 21.113949844 21.616662152 22.119374603 
22.622083235 23.124789696 23.627515954 24.130254128 24.632977341 25.135691004 25.63840161 26.141110602 26.643819962 
27.146529536 27.649243715 28.151960733 28.654675393 29.157388488 29.66010141 30.162814208 30.665527539 31.16824128 
31.670956199 32.173672087 32.676383697 33.179091553 33.681802897 34.184517518 34.687226617 35.189930147 35.692637211 
36.195348099 36.698068369 37.200799535 37.703517628 38.206219432 38.708918927 39.211615336 39.714326791 40.217059804 
40.71977692 41.222469602 41.725170316 42.227884295 42.730601917 43.233325983 43.736046861 44.238761703 44.741476164 
45.244189846 45.746902715 46.249613777 46.752326127 47.255041596 47.757757071 48.260472564 48.763185344 49.265890237 
49.768598572 50.271317924 50.774036853 51.276754284 51.779468386 52.282169314 52.784871637 53.287580147 53.790290933 
54.293013007 54.79573301 55.298441649 55.801154538 56.30389348 56.806628753 57.309338218 57.812049279 58.314773636 
58.817494754 59.320182949 59.822872539 60.325580069 60.828287064 61.330984538 61.833682738 62.336404148 62.839127831 
63.341876719 63.844625607 
ParallelTransportNormals 3 128 double
0.16077889328 0 0.98699044954 0.18240017229 0.0024178758969 0.98295195959 0.2040214513 0.0048357517939 0.97891346965 
0.20560641353 0.005025102468 0.97862184205 0.20540208424 0.0050154404521 0.97866481831 0.19394960417 0.0044581386895 0.98092579293 
0.18214294461 0.0038835929577 0.98325660743 0.16263092529 0.0018770437329 0.98647265888 0.14268293708 -0.00021052818114 0.98973879699 
0.12421002891 -0.0042597292471 0.99206357902 0.10585322314 -0.0084633286297 0.99431426764 0.10422394135 -0.0088304298965 0.99451465165 
0.1042554169 -0.0088166324469 0.99451147544 0.12558380802 0.0070061069911 0.99160602259 0.14946401005 0.024723084611 0.98835281697 
0.17756747251 0.055048500533 0.98159849668 0.20626214207 0.087138950478 0.97435406126 0.22069446594 0.10698037418 0.96920678589 
0.23282616314 0.1248459352 0.96439779866 0.2200057121 0.10324851145 0.96941293485 0.20256386769 0.074342138804 0.97624759929 
0.13767855951 -0.031822339413 0.97966250824 0.062763879992 -0.15431889306 0.98235449362 -0.055707213657 -0.33962584465 0.90400102335 
-0.184523238 -0.53985067289 0.80639873203 -0.26162246187 -0.66606705437 0.67334821296 -0.325595425 -0.77349932388 0.53130056576 
-0.34747194166 -0.82230909474 0.44342404835 -0.3582758186 -0.85569937389 0.3697961779 -0.35941835818 -0.8726417612 0.32897002192 
-0.35777510259 -0.88484148651 0.29760206559 -0.35517987545 -0.89140450193 0.28122303459 -0.35228280641 -0.89618028415 0.2695965464 
-0.35021869856 -0.89871613396 0.26388947008 -0.3484437452 -0.90047441272 0.26023726084 -0.34781596579 -0.90106368763 0.25905244521 
-0.3476217079 -0.90121119144 0.25880006726 -0.35156671626 -0.89853863056 0.26259925967 -0.35720882343 -0.8947098434 0.26805959556 
-0.37037215757 -0.88549136543 0.27958807012 -0.38688719976 -0.87387106256 0.29382070841 -0.41121333644 -0.85434632225 0.31502237309 
-0.43932490555 -0.83099091342 0.33960138501 -0.47608307475 -0.79381404646 0.37240596422 -0.51738678632 -0.74937119949 0.40953474764 
-0.57929050948 -0.66136146282 0.45678280613 -0.6529001029 -0.54859502363 0.50978110029 -0.75173711804 -0.30168862344 0.48473970717 
-0.86576030655 0.025966127758 0.41272069444 -0.89340650939 0.26163461488 0.22415801745 -0.8659195876 0.43858965973 -0.03879271925 
-0.82416260423 0.51028545505 -0.21050849818 -0.7748718288 0.52641027109 -0.33405733718 -0.73151179461 0.5301769714 -0.42232461167 
-0.69157540427 0.52680969212 -0.49022486844 -0.66379862904 0.5233916751 -0.53329156128 -0.64351977525 0.51994237193 -0.56104526026 
-0.64296653873 0.51967294184 -0.56228972014 -0.65550155198 0.52151340634 -0.5459448931 -0.68684259696 0.52307026236 -0.49899863084 
-0.7316441515 0.52442412423 -0.43014924105 -0.77665750794 0.51843342751 -0.34349020984 -0.82183397806 0.50678651117 -0.2431155493 
-0.85491098908 0.48951034404 -0.15148561198 -0.87803965824 0.4676057294 -0.067045706472 -0.89377996694 0.44509818311 0.0026713641664 
-0.9030362815 0.42206150656 0.059467736702 -0.90958497264 0.3987260824 0.10881339239 -0.91358860132 0.37510984691 0.15115565923 
-0.9161466946 0.34909252698 0.19232048381 -0.91724766484 0.32065487512 0.23229842755 -0.91628747174 0.28765583445 0.27418114719 
-0.91309743224 0.24972210649 0.31812452728 -0.90611356222 0.20588978588 0.36452830243 -0.8947235273 0.15520682402 0.41378958698 
-0.87783899554 0.099400839436 0.46333054598 -0.85410795208 0.037211224826 0.51321999811 -0.82477955852 -0.027072835977 0.56014980056 
-0.78797089762 -0.094155902958 0.60312434373 -0.74694159054 -0.1595306838 0.64176148126 -0.69986470217 -0.22245773534 0.67418373792 
-0.64923741801 -0.28125077954 0.70371521063 -0.5931531976 -0.33368988017 0.72880356638 -0.53667478384 -0.37874399661 0.75206081297 
-0.47954539838 -0.41160253474 0.77229416207 -0.4294594402 -0.43659673023 0.78989140345 -0.39183079776 -0.44768170295 0.80282630859 
-0.36245057376 -0.45549511069 0.81303632499 -0.34868610402 -0.45711485168 0.81808763207 -0.33900635301 -0.45821516567 0.82165225156 
-0.33767851088 -0.45825342199 0.82217708297 -0.33685278591 -0.45828110879 0.8225014126 -0.3371423277 -0.45828531934 0.822380402 
-0.33562297805 -0.45818846102 0.82304290659 -0.32972257591 -0.45784681851 0.82560304919 -0.32193960953 -0.4571486504 0.82902068767 
-0.30916919378 -0.45550594435 0.8347100772 -0.29661273257 -0.45362149316 0.8403378963 -0.28467818875 -0.45103434366 0.84578674409 
-0.27572340136 -0.44910189046 0.8498728783 -0.27630825752 -0.44926543723 0.84959630632 -0.28207513803 -0.45081534267 0.84669537367 
-0.30622075613 -0.45728215326 0.83448679741 -0.337260958 -0.46420924345 0.81797187137 -0.39558881826 -0.4729580466 0.7844131026 
-0.46045620529 -0.4785754231 0.74458802898 -0.55435209139 -0.47029261708 0.67694726913 -0.64880560964 -0.45554991125 0.60406157863 
-0.74602443923 -0.40877240476 0.50516614914 -0.83727311625 -0.35856819692 0.40671214556 -0.89574917444 -0.28955341843 0.31068131004 
-0.94899734094 -0.22210414039 0.21901202236 -0.97019666649 -0.16425193865 0.15408057877 -0.98932835823 -0.10969508497 0.093573872895 
-0.99391630723 -0.078317719935 0.064190786175 -0.99803679987 -0.049974791084 0.037709633404 -0.99826497622 -0.046898360869 0.035391687799 
-0.99832393663 -0.045771718803 0.034251651088 -0.99666255985 -0.064467636787 0.045086848599 -0.99484747291 -0.08376194746 0.056013643164 
-0.99105548974 -0.11075230311 0.068118485303 -0.98720286423 -0.1376262345 0.080082136175 -0.98227109875 -0.16242837773 0.089533266134 
-0.97728228536 -0.18727015227 0.099000598672 -0.97046821877 -0.21337993417 0.10898633434 -0.96421766867 -0.2373304632 0.11814625965 
-0.96421766867 -0.2373304632 0.11814625965 -0.96421766867 -0.2373304632 0.11814625965 
FrenetTangent 3 128 double
-0.97809381345 -0.10339346397 0.18067175681 -0.97809381345 -0.10339346397 0.18067175681 -0.97795297337 -0.10640952822 0.17968025541 
-0.97761144372 -0.11224314573 0.17798129492 -0.97688529382 -0.12202909471 0.17551074828 -0.97547138575 -0.13703155712 0.17227282995 
-0.97290432861 -0.15844616705 0.16838046065 -0.96852225107 -0.18720745326 0.16406711624 -0.96146609789 -0.22381170537 0.15965983571 
-0.95073846504 -0.26816464699 0.15551235704 -0.93534157622 -0.31947244489 0.15189961404 -0.91449376285 -0.37621139624 0.14888298444 
-0.88788620164 -0.43622400639 0.14617355846 -0.85589957221 -0.4969708197 0.14302421705 -0.81967649356 -0.55590970881 0.13818408573 
-0.7809750132 -0.61089749409 0.12993183009 -0.74181070572 -0.66046960057 0.11617565843 -0.70399251996 -0.70388056819 0.094586878449 
-0.66868126953 -0.74089691597 0.062746471548 -0.63606218215 -0.77142022997 0.01832291545 -0.60516563669 -0.79506098458 -0.04065197379 
-0.57386280265 -0.81079252857 -0.11531244232 -0.53907679101 -0.81686706215 -0.20524233524 -0.49731698875 -0.81118792147 -0.30765235048 
-0.44561584012 -0.79221302198 -0.4169233153 -0.38259485061 -0.76013289201 -0.52518488817 -0.30906203891 -0.71757910011 -0.62414813241 
-0.22766084066 -0.6691923355 -0.7073557519 -0.14178815082 -0.62023117192 -0.7714981618 -0.054563513224 -0.5751402115 -0.81623315305 
0.031652856645 -0.53681181734 -0.84310804138 0.11518255319 -0.50658779895 -0.85445993551 0.19472572209 -0.48465160831 -0.85275712352 
0.26910784701 -0.47049920327 -0.84036388928 0.33717961965 -0.46334834218 -0.81952316495 0.39789809219 -0.46242992676 -0.79236082126 
0.45045057965 -0.46717482575 -0.76081663854 0.49438683833 -0.47730343017 -0.72647304812 0.52966659053 -0.49283554306 -0.69033791028 
0.55660542609 -0.51403870646 -0.65265198069 0.57573822478 -0.54135669821 -0.61274662123 0.58761002839 -0.57532899366 -0.56895606472 
0.59251641225 -0.61649454557 -0.51851593659 0.59013358401 -0.66523725482 -0.4573857757 0.57897550411 -0.72141374896 -0.3799336369 
0.55556553701 -0.78341928303 -0.27856984951 0.51331643216 -0.84603933284 -0.14395724286 0.44194421156 -0.89646733978 0.032118881877 
0.33066485299 -0.91076196247 0.2473325751 0.17984017048 -0.8615973049 0.47466577428 0.012566393193 -0.74502908549 0.66691359825 
-0.13828057435 -0.5930033509 0.79323735955 -0.25523534834 -0.4444820842 0.8586562722 -0.33883659023 -0.32015094005 0.8846994635 
-0.39632286146 -0.22446889879 0.89024822547 -0.4345267202 -0.15508765045 0.88720592317 -0.45814812876 -0.10824021536 0.8822609296 
-0.47003974632 -0.080550278779 0.87896205235 -0.4718212139 -0.06934810628 0.87896278776 -0.46440555614 -0.072533876565 0.88264733398 
-0.44839628015 -0.088321714128 0.88946053918 -0.42439053582 -0.11500658606 0.89814595599 -0.39319269155 -0.15080549967 0.90700452511 
-0.3559128083 -0.19377775848 0.91420799231 -0.31392716938 -0.24186399497 0.91812392424 -0.26872043199 -0.29301752667 0.91756746809 
-0.22167094079 -0.34535203341 0.91191774137 -0.17383505343 -0.39727960676 0.90108284206 -0.12582030216 -0.4475599273 0.88535832465 
-0.077775998408 -0.49528070715 0.86524442512 -0.029468912914 -0.53977914421 0.84129070995 0.019587104217 -0.58053047778 0.81400289294 
0.069979730554 -0.61705604596 0.78380142476 0.12226375928 -0.64883233963 0.75104471785 0.1768522381 -0.67523351192 0.71608867486 
0.23394523107 -0.69551301266 0.67936093358 0.29348505386 -0.70882913576 0.64142636324 0.35515375282 -0.71430323756 0.60302296529 
0.41838509392 -0.71110601204 0.56505057546 0.48236766911 -0.69856643916 0.52851335071 0.54607238496 -0.67627330105 0.49442832916 
0.60826505011 -0.64419268027 0.46371264756 0.66754643907 -0.60277637524 0.43708396577 0.72244896025 -0.55303051479 0.41499969825 
0.77158245656 -0.49654723739 0.39761960939 0.81383676523 -0.43541421457 0.38481707512 0.84856542552 -0.37200305457 0.37623190456 
0.87568695164 -0.30867684626 0.37133673036 0.89565751683 -0.24750457813 0.36951197052 0.90934011974 -0.19003905692 0.37011579738 
0.91781562948 -0.13720213684 0.37254535823 0.92218762565 -0.089363252969 0.37627674937 0.92345254418 -0.046470493173 0.38088829323 
0.92242507945 -0.0082487755114 0.38608798285 0.91972440422 0.02558828323 0.39172983042 0.91580125798 0.055163425078 0.39782540444 
0.91097874919 0.080311332033 0.40455878247 0.90549066473 0.10054792861 0.41228239125 0.89949496229 0.11505744308 0.42150990215 
0.89305284651 0.12279080463 0.43287299713 0.88607158352 0.12255927931 0.4470529856 0.87820958757 0.1131331308 0.464702932 
0.86877552985 0.093388130433 0.48632061013 0.85665477379 0.062411779203 0.51210093571 0.84029051351 0.019655956831 0.54177993344 
0.81778436349 -0.03484485459 0.5744689469 0.78716945533 -0.10021216352 0.60854068959 0.74686717802 -0.17453736453 0.64165888662 
0.69626297395 -0.25483925233 0.67102520562 0.63619982977 -0.33733389325 0.69387003183 0.56912397543 -0.41805306815 0.70804627871 
0.49872234749 -0.4935870526 0.71249409936 0.42915540106 -0.56168670218 0.70734269653 0.36424896554 -0.62141409834 0.69366217244 
0.30693646336 -0.67289179918 0.67305767514 0.25905187523 -0.71688070659 0.64728214749 0.22138828821 -0.7543548898 0.61800964886 
0.19388197915 -0.78621468055 0.58675058947 0.17582244511 -0.8131606106 0.55484798744 0.16602775016 -0.83568996711 0.52350459888 
0.16299398413 -0.85416761388 0.49379211064 0.16502706861 -0.8689183108 0.46663372766 0.17037459542 -0.88029185248 0.44278522072 
0.17734096167 -0.88869219177 0.42281954969 0.18439387411 -0.89456322646 0.40713085496 0.19026488844 -0.89834053747 0.39595902688 
0.19402196682 -0.90038994513 0.38942704463 0.19402196682 -0.90038994513 0.38942704463 
FrenetNormal 3 128 double
0.037984038883 -0.94200240374 -0.33344967258 0.037984038883 -0.94200240374 -0.33344967258 0.048022187511 -0.95197064984 -0.30239998571 
0.061962683804 -0.96190388695 -0.26627342728 0.079726649294 -0.96979503123 -0.23052387899 0.10227415965 -0.97514524669 -0.19654959713 
0.130791843 -0.97770079328 -0.16430049489 0.16621051482 -0.97699558394 -0.13361771483 0.20891822473 -0.97229424306 -0.10486696468 
0.25863862047 -0.96274329715 -0.078939266453 0.31430824185 -0.94757613999 -0.05753075717 0.37407225134 -0.92639255158 -0.043206378605 
0.43535395651 -0.89938762814 -0.039608419536 0.49494727761 -0.86736808938 -0.051959502651 0.54896746222 -0.83123307534 -0.087671545489 
0.59216689295 -0.7903966429 -0.15688058447 0.61614535428 -0.73964647331 -0.27071755931 0.60785740812 -0.66604729784 -0.43230818686 
0.55688413408 -0.55494232767 -0.61799601469 0.47601128198 -0.41095514324 -0.77751471347 0.40176824551 -0.26092691166 -0.87778096566 
0.36150535271 -0.12444940056 -0.92402717853 0.36078515805 -0.0037624405643 -0.93264136396 0.39337545694 0.10522565583 -0.91333636259 
0.45010636837 0.20430424611 -0.86928938345 0.52227929079 0.2909598981 -0.80160256992 0.60278668899 0.35981818831 -0.71216506439 
0.68641573482 0.40495239676 -0.60402565786 0.76895567277 0.42179356307 -0.48041374197 0.84533005501 0.40847597382 -0.3443319284 
0.90877293034 0.36661662659 -0.1993088312 0.95189895753 0.30216672597 -0.050829562054 0.97003047017 0.22397548833 0.094211822922 
0.96305990514 0.14036164525 0.22981346274 0.93400614525 0.055458703172 0.35292612949 0.88562274072 -0.031838825936 0.46331269169 
0.81751444415 -0.12667578059 0.56180368476 0.72506009995 -0.23453602141 0.64751888476 0.60186884832 -0.35510576106 0.71529978881 
0.44942944219 -0.47440369644 0.75693745402 0.28573711801 -0.5689460662 0.77113855639 0.13727273247 -0.62208252668 0.77082392731 
0.017978973548 -0.63339190109 0.77362229553 -0.075350697683 -0.60947288721 0.78921801304 -0.15426679899 -0.55448705361 0.81776883171 
-0.23099015233 -0.46726476631 0.85340915609 -0.31471383171 -0.34163042814 0.88557543705 -0.4080182474 -0.16900157204 0.89719539591 
-0.50222110434 0.052069836409 0.86317014226 -0.57539828818 0.29923512857 0.76116696446 -0.60673354534 0.52446927535 0.59733272484 
-0.59754742037 0.68868274837 0.4106740222 -0.56655916693 0.78838789895 0.23969820849 -0.53067397648 0.84150391122 0.1012733829 
-0.49738244694 0.86752722563 -0.0026859403172 -0.46609201474 0.88162214274 -0.074166240391 -0.42681897212 0.89743201286 -0.11154078771 
-0.33002021988 0.9396378861 -0.090373101481 0.58706971007 0.71907115026 0.37186803623 0.72476596032 -0.60388975284 0.33170991721 
0.65866811948 -0.70534190446 0.26200974446 0.64577076679 -0.7337449815 0.21118337739 0.64734977748 -0.74593075517 0.15660643051 
0.65329107114 -0.75110679746 0.095128098758 0.65952364615 -0.75117615442 0.027621462714 0.66434209871 -0.74614909958 -0.043716096445 
0.66773288471 -0.73528434122 -0.11614530655 0.67078405849 -0.71768653123 -0.18701548004 0.67555290989 -0.69220996105 -0.25391659212 
0.68384906947 -0.65802866877 -0.31519632179 0.6972894387 -0.61414356186 -0.36961483209 0.71617527568 -0.55995676441 -0.41658300073 
0.73956694358 -0.49519381098 -0.45587698508 0.76570636134 -0.41978956211 -0.48730944147 0.79229764056 -0.3339864737 -0.51060501775 
0.8171010807 -0.23802510735 -0.5250617794 0.83777279196 -0.13246425427 -0.52970743848 0.85210461675 -0.017908449883 -0.52306501464 
0.8574294085 0.10400808231 -0.50398127768 0.85093838263 0.23048435881 -0.4719966412 0.83013474015 0.35748650267 -0.42787815276 
0.79351331172 0.47975433209 -0.37439605361 0.74137758622 0.59239302845 -0.31532487136 0.67579565556 0.69167710397 -0.25472144743 
0.60014846892 0.77545114187 -0.19620739492 0.51825879058 0.84339254172 -0.141763347 0.43379983071 0.89627937882 -0.092200769916 
0.34989656507 0.93558781611 -0.04741130768 0.2689938737 0.96311715501 -0.0069022928045 0.19282626397 0.98077929024 0.029833131895 
0.12234277019 0.9904632181 0.063362924338 0.057991651171 0.99388980041 0.093915030935 -0.00038196392345 0.99252757408 0.12201995241 
-0.053809942891 0.98727316702 0.14965354566 -0.10413903002 0.97802474835 0.1806174245 -0.15481399289 0.96246357729 0.22292709569 
-0.21150894188 0.93303471716 0.29105014016 -0.28301191217 0.86700535634 0.41012921091 -0.37693213744 0.69223723843 0.61541024487 
-0.44972757094 0.27395808958 0.85011297902 -0.40765708085 -0.25306882329 0.87736644289 -0.33036615674 -0.55908710974 0.76044710941 
-0.29149407451 -0.69745612663 0.65466491883 -0.28908968119 -0.76408339368 0.57671806261 -0.31284973255 -0.79857795865 0.51419674134 
-0.35549612436 -0.81556195949 0.45659741107 -0.41151076281 -0.82028867414 0.39722208293 -0.47550911969 -0.81471248419 0.33186540224 
-0.5420225423 -0.7995324452 0.2587652077 -0.60523243841 -0.77596534323 0.17768365598 -0.65962629184 -0.74623335769 0.089604302263 
-0.70052153766 -0.71361990899 -0.0040250183543 -0.72398113137 -0.68216996542 -0.10244735086 -0.72682886202 -0.65537135693 -0.20544631867 
-0.70570456396 -0.63540870137 -0.31342758433 -0.65658842751 -0.62220255522 -0.42632806281 -0.57577387268 -0.61259625737 -0.54148894078 
-0.46184218724 -0.60082492974 -0.65246547639 -0.31938200077 -0.58025952173 -0.74919558529 -0.16058547613 -0.54669867479 -0.82178638577 
-0.0018672776492 -0.50075123497 -0.86558922934 0.1420627602 -0.44724565054 -0.88305690657 0.2630583188 -0.39241393569 -0.88136917576 
0.35774681015 -0.34202660765 -0.86892751107 0.42724271584 -0.30009445603 -0.85288157397 0.4733012714 -0.26942277753 -0.83868782836 
0.49811346869 -0.25156700862 -0.82981745732 0.49811346869 -0.25156700862 -0.82981745732 
FrenetBinormal 3 128 double
0.20466974591 -0.31928241881 0.9252940247 0.20466974591 -0.31928241881 0.9252940247 0.20322856932 -0.28710432625 0.93609254588 
0.20108826649 -0.24928375097 0.94732313419 0.19834007188 -0.21120250338 0.95710747487 0.19492452861 -0.17410944896 0.96524107244 
0.19065849361 -0.1378258719 0.97193280007 0.18530708014 -0.10214205009 0.97735780943 0.17870679331 -0.067470181889 0.98158629604 
0.17088719989 -0.034829095527 0.98467481892 0.16231594159 -0.0060676084635 0.98672018284 0.15417881987 0.016181029426 0.98791045434 
0.1487448335 0.028469467838 0.98846571206 0.1498769985 0.026317330769 0.98835433091 0.16360064586 0.0039962618681 0.9865185546 
0.19853563824 -0.045578488409 0.97903329961 0.2647296343 -0.1292400915 0.95562294838 0.367292667 -0.24684639509 0.89675133342 
0.49269201434 -0.37829984519 0.78367327767 0.60732047541 -0.48582579084 0.62859775779 0.68728220482 -0.54753554914 0.47733425748 
0.73484376822 -0.57195089153 0.36452272081 0.76107179893 -0.57681370201 0.29674175651 0.77326034592 -0.57524057351 0.26677091298 