# vtk DataFile Version 4.2
vtk output
ASCII
DATASET POLYDATA
POINTS 128 float
0 0 0 -0.312401 0.0588466 0.105804 -0.924891 0.190854 0.311578 
-1.43296 0.338405 0.478594 -1.84893 0.490219 0.613141 -2.28971 0.647567 0.757811 
-2.75381 0.802638 0.913524 -3.2131 0.945358 1.07184 -3.66961 1.0669 1.23493 
-4.13213 1.15828 1.40731 -4.59915 1.20792 1.58971 -5.06546 1.20381 1.78121 
-5.52341 1.13612 1.97873 -5.96466 0.997527 2.178 -6.38133 0.790861 2.37245 
-6.76663 0.522905 2.55489 -7.11928 0.203262 2.71957 -7.44001 -0.157911 2.86123 
-7.73003 -0.553244 2.97472 -7.9904 -0.976534 3.05472 -8.22058 -1.42234 3.09482 
-8.41914 -1.88522 3.08829 -8.58339 -2.35755 3.02912 -8.71026 -2.83079 2.9125 
-8.79817 -3.29594 2.73997 -8.84648 -3.74432 2.51619 -8.85684 -4.17109 2.2491 
-8.83197 -4.57349 1.94797 -8.77481 -4.95152 1.62093 -8.68838 -5.30659 1.27541 
-8.57551 -5.64124 0.917422 -8.43895 -5.95858 0.552176 -8.28118 -6.26218 0.183842 
-8.10458 -6.55583 -0.183978 -7.91152 -6.84361 -0.548061 -7.70428 -7.12982 -0.905374 
-7.48484 -7.41939 -1.2527 -7.25508 -7.71771 -1.58647 -7.01795 -8.03054 -1.90058 
-6.77708 -8.36427 -2.18711 -6.53566 -8.72942 -2.43504 -6.29862 -9.13813 -2.6291 
-6.0947 -9.59093 -2.72551 -5.96724 -10.0772 -2.66636 -5.94537 -10.5436 -2.45228 
-6.04535 -10.9135 -2.1246 -6.24827 -11.1694 -1.73328 -6.51409 -11.3329 -1.33096 
-6.82088 -11.4184 -0.941547 -7.15898 -11.4355 -0.569762 -7.51874 -11.3918 -0.219581 
-7.89044 -11.2932 0.105623 -8.26546 -11.1455 0.406887 -8.63603 -10.9546 0.688607 
-8.99504 -10.7277 0.958056 -9.33598 -10.4732 1.22489 -9.65272 -10.1995 1.503 
-9.93886 -9.91649 1.80993 -10.177 -9.65384 2.16882 -10.3413 -9.45726 2.60491 
-10.4163 -9.36406 3.10061 -10.3965 -9.40183 3.60263 -10.2962 -9.56208 4.07393 
-10.1454 -9.8067 4.49291 -9.96466 -10.1103 4.8518 -9.7653 -10.4594 5.15432 
-9.5571 -10.8436 5.40459 -9.34848 -11.2547 5.60676 -9.14632 -11.6868 5.76638 
-8.95597 -12.1355 5.8903 -8.78089 -12.597 5.9862 -8.62266 -13.068 6.06254 
-8.48025 -13.5455 6.12856 -8.35002 -14.0265 6.19424 -8.22656 -14.508 6.2688 
-8.10273 -14.9865 6.36058 -7.97015 -15.4574 6.47666 -7.81915 -15.9146 6.62264 
-7.64052 -16.3499 6.8016 -7.4258 -16.7527 7.01371 -7.17067 -17.1137 7.2553 
-6.87603 -17.426 7.51821 -6.54545 -17.687 7.79408 -6.18551 -17.8995 8.0747 
-5.80233 -18.0677 8.35389 -5.40111 -18.1974 8.62821 -4.9862 -18.2934 8.89555 
-4.56087 -18.36 9.15538 -4.12798 -18.4 9.40789 -3.68986 -18.4148 9.65406 
-3.24873 -18.4048 9.89501 -2.80672 -18.3695 10.1319 -2.36591 -18.3084 10.3659 
-1.92832 -18.2213 10.5975 -1.49553 -18.109 10.8273 -1.06833 -17.9741 11.0554 
-0.646834 -17.8199 11.2817 -0.230042 -17.6515 11.5066 0.183453 -17.4742 11.7305 
0.595626 -17.2935 11.9542 1.00833 -17.1151 12.1788 1.42306 -16.9448 12.406 
1.84085 -16.7885 12.6377 2.26194 -16.6525 12.8763 2.68575 -16.5438 13.1242 
3.11024 -16.4711 13.3841 3.5314 -16.444 13.6586 3.94118 -16.4732 13.9497 
4.32904 -16.5681 14.258 4.67975 -16.734 14.5796 4.97906 -16.9717 14.909 
5.21704 -17.272 15.2371 5.38809 -17.6231 15.5555 5.49638 -18.0111 15.8586 
5.5482 -18.4236 16.1425 5.55128 -18.8522 16.4062 5.51309 -19.2907 16.6493 
5.43964 -19.736 16.8721 5.33667 -20.1852 17.0751 5.20974 -20.6345 17.2588 
5.06353 -21.083 17.4241 4.90001 -21.5385 17.5729 4.72298 -22.0019 17.7061 
4.54444 -22.4432 17.8216 4.36934 -22.8595 17.9202 4.17101 -23.3691 18.0165 
3.9546 -23.9848 18.1124 3.84852 -24.299 18.1577 
LINES 1 129
128 0 1 2 3 4 5 6 7 8 9 10 11 12 13 14 15 16 17 18 19 20 21 22 23 24 25 26 27 28 29 30 31 32 33 34 35 36 37 38 39 40 41 42 43 44 45 46 47 48 49 50 51 52 53 54 55 56 57 58 59 60 61 62 63 64 65 66 67 68 69 70 71 72 73 74 75 76 77 78 79 80 81 82 83 84 85 86 87 88 89 90 91 92 93 94 95 96 97 98 99 100 101 102 103 104 105 106 107 108 109 110 111 112 113 114 115 116 117 118 119 120 121 122 123 124 125 126 127 

CELL_DATA 1
FIELD FieldData 2
Length 1 1 double
56.600001245 
Tortuosity 1 1 double
0.85106296034 
POINT_DATA 128
SCALARS MaximumInscribedSphereRadius float
LOOKUP_TABLE default
0.93 1.1217 1.31341 1.41092 1.50053 1.41401 1.32092 1.28036 1.24286 
1.24003 1.24 1.24 1.24 1.18955 1.13302 1.06182 0.988571 1.04627 
1.12503 1.13869 1.14039 1.07673 0.999516 1.04283 1.11397 1.13555 1.14452 
1.08326 1.0023 1.02747 1.08548 1.12717 1.16331 1.11957 1.04588 1.02105 
1.01629 1.07727 1.16778 1.26576 1.36739 1.48161 1.60245 1.63635 1.62292 
1.3991 1.06908 1.01775 1.11253 1.24288 1.39303 1.53714 1.67764 1.6679 
1.5621 1.46974 1.38663 1.39024 1.45813 1.43122 1.32995 1.27292 1.25013 
1.24573 1.25606 1.27262 1.29447 1.32362 1.35937 1.40288 1.4539 1.49781 
1.53431 1.50592 1.40469 1.32476 1.27063 1.24 1.24 1.24038 1.2413 
1.29062 1.4119 1.59629 1.88106 2.05274 2.03076 1.98976 1.91356 1.86224 
1.86091 1.86 1.86 1.86812 1.89558 1.9589 2.11571 2.24676 2.30401 
2.30442 2.12472 1.98748 1.99986 2.02772 2.11655 2.20633 2.30034 2.37033 
2.3216 2.25578 2.09614 1.95397 1.91796 1.87109 1.74934 1.62482 1.47781 
1.35419 1.46005 1.5678 1.69907 1.82414 1.8424 1.86 1.86 1.86 
1.86 1.86 
TEXTURE_COORDINATES TCoords 2 float
0 0 0.00787402 0 0.015748 0 0.023622 0 0.0314961 
0 0.0393701 0 0.0472441 0 0.0551181 0 0.0629921 0 
0.0708661 0 0.0787402 0 0.0866142 0 0.0944882 0 0.102362 
0 0.110236 0 0.11811 0 0.125984 0 0.133858 0 
0.141732 0 0.149606 0 0.15748 0 0.165354 0 0.173228 
0 0.181102 0 0.188976 0 0.19685 0 0.204724 0 
0.212598 0 0.220472 0 0.228346 0 0.23622 0 0.244094 
0 0.251969 0 0.259843 0 0.267717 0 0.275591 0 
0.283465 0 0.291339 0 0.299213 0 0.307087 0 0.314961 
0 0.322835 0 0.330709 0 0.338583 0 0.346457 0 
0.354331 0 0.362205 0 0.370079 0 0.377953 0 0.385827 
0 0.393701 0 0.401575 0 0.409449 0 0.417323 0 
0.425197 0 0.433071 0 0.440945 0 0.448819 0 0.456693 
0 0.464567 0 0.472441 0 0.480315 0 0.488189 0 
0.496063 0 0.503937 0 0.511811 0 0.519685 0 0.527559 
0 0.535433 0 0.543307 0 0.551181 0 0.559055 0 
0.566929 0 0.574803 0 0.582677 0 0.590551 0 0.598425 
0 0.606299 0 0.614173 0 0.622047 0 0.629921 0 
0.637795 0 0.645669 0 0.653543 0 0.661417 0 0.669291 
0 0.677165 0 0.685039 0 0.692913 0 0.700787 0 
0.708661 0 0.716535 0 0.724409 0 0.732283 0 0.740157 
0 0.748031 0 0.755906 0 0.76378 0 0.771654 0 
0.779528 0 0.787402 0 0.795276 0 0.80315 0 0.811024 
0 0.818898 0 0.826772 0 0.834646 0 0.84252 0 
0.850394 0 0.858268 0 0.866142 0 0.874016 0 0.88189 
0 0.889764 0 0.897638 0 0.905512 0 0.913386 0 
0.92126 0 0.929134 0 0.937008 0 0.944882 0 0.952756 
0 0.96063 0 0.968504 0 0.976378 0 0.984252 0 
0.992126 0 1 0 
FIELD FieldData 7
Curvature 1 128 double
0 0.0083008286417 0.017125665958 0.028188406208 0.04208976745 0.059099429112 0.079158369854 0.10189831486 0.12663712405 
0.15235901608 0.17773608357 0.20123590405 0.22138936799 0.23714899771 0.24821810902 0.25511784714 0.25896945006 0.26107690947 
0.26243607568 0.26342514644 0.26373610509 0.26251660572 0.25868423119 0.25128429549 0.23984552188 0.22443881229 0.20569424779 
0.18450826277 0.16187626841 0.13873020831 0.11594516498 0.094555414403 0.076484942378 0.065692277469 0.068037244002 0.085922569099 
0.11731457787 0.1616530214 0.22173592332 0.30319511805 0.41305682501 0.55501458801 0.71756915617 0.85895157199 0.91644222346 
0.86051513527 0.72757868597 0.57721103453 0.44495040795 0.33943251225 0.2572382361 0.19289975646 0.14342368782 0.1117117578 
0.10820889865 0.13782968115 0.19187919173 0.26235306502 0.3425016815 0.42116396633 0.48088921537 0.50453354984 0.48643353364 
0.43651179539 0.37187874242 0.30648940891 0.24734320947 0.19618474174 0.1521857868 0.11373574831 0.079364735449 0.048376567706 
0.02361607481 0.026440192802 0.051303825612 0.078977266095 0.10624793555 0.13172546012 0.15399004498 0.17170028096 0.18369010781 
0.18953300665 0.18941071449 0.1843550489 0.17572629631 0.16499909095 0.1532927752 0.14151690524 0.13005856715 0.11908228514 
0.10841706728 0.09773581068 0.086686702726 0.074862857696 0.061966535789 0.04777533865 0.032351685556 0.016745057756 0.012502517173 
0.029577328572 0.051678678678 0.076263868337 0.10314393509 0.13224577167 0.16340046617 0.19588967496 0.22840290144 0.25867768855 
0.2837943816 0.30070482221 0.30708234183 0.30241890693 0.28799335738 0.26651668647 0.24098727769 0.21407776363 0.18763395221 
0.16266538003 0.13974091898 0.11890403625 0.1000528174 0.082935117172 0.067230678594 0.052578666391 0.038643663337 0.0251132805 
0.011774899747 0 
Torsion 1 128 double
0 0 -0.050858904117 -0.054536185328 -0.053922532927 -0.05203611752 -0.051040595645 -0.052002631022 -0.055320590646 
-0.06117737525 -0.069687874319 -0.080824705594 -0.094416491556 -0.10981379901 -0.12589976221 -0.14081012636 -0.15202446251 -0.15689952844 
-0.15373115746 -0.14226280334 -0.12374232886 -0.10048804274 -0.074749039283 -0.048102998867 -0.021292231669 0.0059694710252 0.034914441745 
0.067713204394 0.10893481068 0.16649909234 0.25530329621 0.40457669528 0.65352776809 0.95268392261 0.98467617284 0.71526100043 
0.47058979193 0.32576189577 0.2457711806 0.20083464853 0.17418095136 0.15613038246 0.14098061889 0.1260526066 0.11009146282 
0.09044743963 0.062411655154 0.022003113239 -0.032847451128 -0.10619023969 -0.21096621596 -0.38011304976 -0.68094093375 -1.1342515854 
-1.2764741445 -0.87947932325 -0.53690423093 -0.35496781529 -0.26132983866 -0.21071745177 -0.18281293915 -0.1678806662 -0.16039378055 
-0.15621626821 -0.15224604239 -0.1463177087 -0.13619654028 -0.1198037394 -0.092868657835 -0.043709687256 0.065614322861 0.41002709637 
2.1109759424 1.6232281219 0.33204126381 0.069463351123 -0.012776522697 -0.045904093674 -0.060695261531 -0.066964599579 -0.068429148042 
-0.066480236888 -0.061815544657 -0.054356821746 -0.044128369092 -0.031472789827 -0.01694615635 -0.0013866152364 0.013843270308 0.02729588507 
0.038516588446 0.047608955841 0.056113522133 0.067740346849 0.09101115379 0.15056523802 0.3456576712 1.4138835221 2.7706073701 
0.51565014373 0.1613808563 0.060105932339 0.017540806503 -0.0038188083137 -0.015631503559 -0.022071269944 -0.024924517224 -0.025362087606 
-0.023687799035 -0.020534703193 -0.015825892993 -0.0095711363616 -0.0019236701474 0.0072117307934 0.017808771556 0.030130759039 0.043175440972 
0.056875507349 0.070931892006 0.083453385255 0.092958658855 0.098021928702 0.097083266316 0.089018613934 0.074420579476 0.054456429891 
0 0 
Abscissas 1 128 double
0 0.50257382079 1.0051476416 1.5077197717 2.0102917602 2.5128659649 3.0154402523 3.5180119935 4.0205835866 
4.5231585882 5.0257338649 5.5283086307 6.0308833446 6.5334543444 7.0360248958 7.5385996303 8.0411749487 8.5437483416 
9.0463214249 9.5488951239 10.051468936 10.554045361 11.056622329 11.559196141 12.061769224 12.564344023 13.066919259 
13.569491052 14.072061878 14.574635537 15.077210072 15.57978311 16.082355637 16.584929286 17.087503356 17.590074043 
18.09264334 18.595219349 19.097798374 19.600372883 20.102945185 20.605518133 21.108091419 21.61066586 22.113240928 
22.615807462 23.118369689 23.62094355 24.123523511 24.626099693 25.128673772 25.631251572 26.133831587 26.636411886 
27.138992367 27.641556289 28.144108809 28.646683149 29.149273669 29.651851831 30.154420299 30.656991488 31.159564784 
31.662131743 32.164693629 32.667264132 33.169841938 33.672411198 34.174972733 34.677545314 35.180128606 35.682713991 
36.185301558 36.68787126 37.190420902 37.692985454 38.195568063 38.698150564 39.200732923 39.70330786 40.205872445 
40.708448212 41.211040608 41.713624105 42.216193449 42.718764667 43.221339096 43.723912362 44.226483475 44.729053573 
45.231621632 45.734193304 46.236772871 46.739347418 47.241910007 47.744481213 48.247074874 48.749660182 49.252221556 
49.75478331 50.257346265 50.759916905 51.262514625 51.765104293 52.267662275 52.770224706 53.272806781 53.77538757 
54.277962009 54.780533146 55.283086171 55.7856467 56.288252879 56.790851633 57.293399212 57.795948354 58.298510149 
58.801076947 59.303692859 59.806305063 60.308871239 60.811436735 61.31399055 61.816545273 62.319124373 62.821704144 
63.324291852 63.826879559 
ParallelTransportNormals 3 128 double
0.31908738972 0 0.94772529655 0.31501039042 0.0010916542263 0.94907644817 0.31093339112 0.0021833084525 0.95042759979 
0.31293324048 0.0014888192024 0.94977008793 0.31544232728 0.0006446518567 0.94894425088 0.32281316791 -0.0016772330433 0.94642395513 
0.33036521891 -0.004054196368 0.94384050243 0.34284955775 -0.0067698036618 0.93926179605 0.35562093321 -0.0095051184871 0.93456697502 
0.37206931132 -0.01012122109 0.9279721995 0.38881437577 -0.010566330794 0.92122412233 0.40347561442 -0.0073142911837 0.9148168576 
0.41792538556 -0.0036870633297 0.90844417866 0.42187923851 -0.0018385739168 0.90664384503 0.42456621522 -0.00020478144035 0.90539540173 
0.41550082209 -0.0096533616516 0.9093998905 0.40479491524 -0.020648930652 0.91413763625 0.38556171025 -0.049110408659 0.92059197634 
0.36495759783 -0.080379826983 0.92732228801 0.33982109316 -0.13313874311 0.92894786292 0.31385148521 -0.18984766394 0.9296351314 
0.29069902319 -0.2632564333 0.91630664503 0.26813125507 -0.3401312282 0.90006921226 0.25600059918 -0.41323435273 0.87031840761 
0.24627998613 -0.48546655751 0.83744721826 0.24561589118 -0.53990334244 0.80284554656 0.24725685063 -0.58981085791 0.76780343452 
0.25226894061 -0.62259110144 0.739794818 0.258226708 -0.6505667627 0.71375925405 0.26325972658 -0.66624297834 0.69748827615 
0.26800660174 -0.6781133978 0.68423873722 0.26930511868 -0.68129130141 0.68067377842 0.26942775004 -0.68150506861 0.68041124862 
0.2642425146 -0.67413396804 0.68950971424 0.25706731497 -0.66391923637 0.70211769624 0.24193270287 -0.64365652559 0.72500058547 
0.22352668589 -0.61926398639 0.75210657304 0.19168954865 -0.57490618398 0.79179150651 0.15381985404 -0.52158102865 0.83712624516 
0.092023049871 -0.41506902757 0.89182004324 0.018538922636 -0.28257763072 0.95108532333 -0.058648277578 -0.042921838471 0.95441197426 
-0.13778158224 0.25305288333 0.92834076685 -0.13561135784 0.50922517375 0.80321851212 -0.089189388898 0.74373386548 0.6241849242 
-0.019748008231 0.86396322726 0.47854006324 0.061312631466 0.92650904995 0.34974846822 0.13650435274 0.95253763549 0.2518193441 
0.20861931642 0.95942220193 0.17006974994 0.27702711582 0.95157631948 0.10247595861 0.34337232533 0.93553471852 0.042758164548 
0.4045531968 0.91147832033 -0.0081168566812 0.46265918302 0.8826498523 -0.053726825252 0.51057985865 0.85300473025 -0.092016527314 
0.55198879262 0.82283749942 -0.12562618708 0.576946002 0.8028445888 -0.14855859168 0.59057493435 0.78985747975 -0.16413888535 
0.5858044105 0.79615116451 -0.14274680516 0.56739073583 0.81674150972 -0.093939802091 0.56010241794 0.82243570014 -0.010850387675 
0.56154017212 0.81644622749 0.099128123224 0.57631140572 0.7903940343 0.19067948982 0.60140559078 0.74880902451 0.267964324 
0.62884846944 0.70150084648 0.32831856396 0.65817100458 0.64961242424 0.37512327106 0.68710571089 0.59498794748 0.41226636691 
0.71571182107 0.53804529115 0.44122346008 0.74178104137 0.48141248592 0.46353311227 0.76555648393 0.42505983851 0.47983235299 
0.78454643402 0.37578380483 0.49162375306 0.7988959248 0.33336991504 0.49904393091 0.80768843708 0.30644848384 0.50362000466 
0.81068935046 0.29567361607 0.50523189379 0.80831241155 0.30452938736 0.50310638331 0.79989658771 0.33542874844 0.49678408106 
0.78365371521 0.38546165031 0.48231006547 0.75793146585 0.45866727686 0.45796347004 0.72010087323 0.54170051701 0.42178144692 
0.66649559855 0.63753711731 0.37018029467 0.60373169284 0.72598486894 0.31248857512 0.52819455997 0.80412764788 0.24630255121 
0.45319929109 0.86829644673 0.1837153214 0.37900969115 0.91168807283 0.12647894842 0.31008474503 0.94580303764 0.075448106883 
0.24953386109 0.96516236207 0.034287906047 0.19327276499 0.98010728425 -0.0026873477139 0.14435855285 0.98749190222 -0.032495272536 
0.097021501389 0.99267030237 -0.060608322388 0.052604896831 0.99376342314 -0.085582952412 0.0079697855181 0.99312169359 -0.11031160048 
-0.037104251543 0.98899508105 -0.13454613194 -0.081842154333 0.98326105561 -0.15850967194 -0.12584567573 0.97401517726 -0.18188115364 
-0.1670760887 0.96420765417 -0.20381513733 -0.20170166059 0.95306243571 -0.22232536531 -0.23166954362 0.9430194287 -0.2383707112 
-0.24949787038 0.93584916788 -0.24799171751 -0.26222304503 0.93074411287 -0.25485692816 -0.26032857393 0.93155551435 -0.25382726219 
-0.2535194161 0.93427795357 -0.25008169088 -0.23113755957 0.94305571566 -0.23773048957 -0.20354640009 0.95287984581 -0.22225939705 
-0.15759978827 0.96639094896 -0.19579508432 -0.10563054943 0.97909899849 -0.16500596568 -0.029959698392 0.98864668871 -0.1171968867 
0.050941419088 0.99375654538 -0.063853395495 0.15493222971 0.97927500727 0.013922480049 0.25901667091 0.95702401037 0.095903661078 
0.36356392239 0.89636904693 0.19867141366 0.46206802014 0.83030009487 0.30077565282 0.52740647 0.73451843851 0.39923844027 
0.5865913355 0.63900229474 0.49377094592 0.60834892228 0.54510104939 0.56439872485 0.62713604204 0.45338778099 0.63185090551 
0.62545089064 0.37675391155 0.67741706344 0.62271368235 0.30187738634 0.72119270825 0.61146556013 0.24121739786 0.750483487 
0.59995653156 0.18177085807 0.77878895238 0.58588635544 0.13423595311 0.79742223873 0.57187788677 0.087549437759 0.81551044344 
0.55863559943 0.051396826883 0.82683072239 0.54558511606 0.015886718153 0.83785797793 0.53583791906 -0.0085580901285 0.84383872564 
0.52631381414 -0.032462531268 0.84966627246 0.52277536685 -0.041868686886 0.85138337308 0.51951291195 -0.050541179661 0.852966543 
0.51951291195 -0.050541179661 0.852966543 0.51951291195 -0.050541179661 0.852966543 
FrenetTangent 3 128 double
-0.91952589628 0.23789830364 0.31285223861 -0.91952589628 0.23789830364 0.31285223861 -0.92035123657 0.23195316405 0.31488304342 
-0.92181847013 0.22130080262 0.31823994547 -0.92401439633 0.2046943977 0.32295138787 -0.92689956388 0.18069245345 0.32894898653 
-0.93019142808 0.14783946138 0.3359872033 -0.93325825199 0.10485303267 0.34356204189 -0.9350540744 0.050822229363 0.35084323984 
-0.93412729919 -0.014576886938 0.35664226233 -0.92873398785 -0.090867099159 0.35943893794 -0.91706729348 -0.17661032497 0.35748618482 
-0.89757113954 -0.26938332445 0.34899666756 -0.86925258622 -0.36595978491 0.33237535586 -0.83187193382 -0.46269395447 0.30643660065 
-0.78592813077 -0.55599482451 0.2705304574 -0.73244871453 -0.64272225721 0.22455952587 -0.67268322067 -0.72039047741 0.16892259971 
-0.60783653826 -0.78716229847 0.10445218344 -0.53894151073 -0.84172009962 0.032393238486 -0.46687570019 -0.88314797976 -0.045571113773 
-0.39247474324 -0.91091177002 -0.12729227454 -0.31667067242 -0.92495116774 -0.21020233709 -0.24057466479 -0.92583329558 -0.29147305099 
-0.16545439531 -0.91486892169 -0.36829295295 -0.092624956409 -0.89409866016 -0.43818740666 -0.023292023551 -0.86612909444 -0.49927735119 
0.041581806145 -0.83386412849 -0.55040127963 0.10133367638 -0.8002208456 -0.59108212991 0.15560285572 -0.76791086247 -0.62136998527 
0.20426128749 -0.73931158724 -0.64163517937 0.2473080973 -0.71642420813 -0.65236114156 0.28477430474 -0.70088953431 -0.6539552401 
0.31661828199 -0.69401895627 -0.64659922042 0.34261451036 -0.69682456562 -0.63011968867 0.36224007144 -0.71002287407 -0.60386227647 
0.37451645133 -0.73399862357 -0.56655401179 0.37780376574 -0.76867686289 -0.51613970497 0.36952148601 -0.81320909155 -0.44960520992 
0.34579954049 -0.86530342411 -0.36286727878 0.30121762811 -0.91992096905 -0.25102460281 0.2291516492 -0.96718821658 -0.10971087172 
0.12396792756 -0.99039704226 0.061201728851 -0.013597969893 -0.96780259171 0.25134287078 -0.17025490361 -0.88350550956 0.43638432874 
-0.3221868327 -0.74248306338 0.58729425795 -0.44834526885 -0.57041740449 0.68819365338 -0.5405436372 -0.39587968978 0.74235560717 
-0.60117345374 -0.23685078268 0.7632117565 -0.63641050013 -0.10044987268 0.76478199403 -0.65213573635 0.012216825188 0.75800378004 
-0.65274719933 0.10225001687 0.75064374227 -0.64117443611 0.17103976995 0.74809139788 -0.61911364528 0.21947929203 0.75400738365 
-0.58718923181 0.24763989075 0.77063823585 -0.54503453026 0.25460110621 0.79882140529 -0.49140461039 0.23841508443 0.83766327149 
-0.42448821583 0.19639781624 0.8838764916 -0.34268575312 0.12607086911 0.93095252863 -0.2460928185 0.027071123688 0.96886814322 
-0.13834649131 -0.096275270725 0.98569331974 -0.027431798995 -0.23364077173 0.97193594757 0.076261813577 -0.37097661801 0.92550552925 
0.16397074989 -0.49570445974 0.85287201957 0.23148608225 -0.6006984377 0.76522910339 0.27909661221 -0.68448135921 0.67349116546 
0.3097719995 -0.74903058475 0.58565731571 0.32745108453 -0.79755246197 0.50664174488 0.33607304726 -0.83320907204 0.43910995112 
0.33922119039 -0.85861374146 0.38433244329 0.34005374722 -0.87571922602 0.34275251448 0.34132333011 -0.88584520171 0.31428754815 
0.34538530853 -0.88973267547 0.29847069344 0.35418072549 -0.88759349871 0.29450601818 0.36918696613 -0.87916853904 0.3012700848 
0.39133965214 -0.86381497731 0.31729633095 0.42094949673 -0.84064568907 0.34075848728 0.45761799305 -0.80874826526 0.36947532513 
0.50020466958 -0.7674717759 0.40097675958 0.54690415107 -0.71672162043 0.43267305018 0.59545265701 -0.6571815764 0.46211309103 
0.64345520725 -0.59035123575 0.48728925159 0.68874026675 -0.51836742395 0.5068846602 0.72964342773 -0.44365849562 0.52037256619 
0.76514088178 -0.36853519943 0.52795950394 0.79481157785 -0.29489512748 0.5303879896 0.81869647171 -0.22410236331 0.52869104208 
0.83713419937 -0.15700475789 0.52398076134 0.85061900498 -0.094050989353 0.5173023485 0.85971010513 -0.0354592033 0.50954997797 
0.86499287161 0.018635685257 0.50143797553 0.8670650147 0.068049698835 0.49352558067 0.86654857051 0.11249396557 0.48624960942 
0.86409562879 0.15154975632 0.47997022372 0.86038151811 0.18467558861 0.47501428428 0.85607662541 0.2112367924 0.47171159511 
0.85179580469 0.23054312485 0.47041872273 0.84803442673 0.2418927781 0.47151404537 0.84509535182 0.24457696052 0.47539032039 
0.84301748382 0.23787864886 0.4824264404 0.84150406943 0.22107523949 0.4929468933 0.83986539762 0.19344756672 0.50715298758 
0.83696673575 0.15431381457 0.52504659781 0.83119196106 0.10310985811 0.54634081032 0.82045751158 0.039525685823 0.57033954085 
0.80229173438 -0.036253637486 0.59583021635 0.77404940431 -0.12323766143 0.62101529651 0.73331138214 -0.21931758522 0.64354814399 
0.67845725017 -0.32107267662 0.66076326776 0.60928664531 -0.42393209078 0.67011295037 0.52742864859 -0.52274612092 0.66974287134 
0.43626099589 -0.61273913994 0.65895909573 0.34027732704 -0.69043446352 0.63836634645 0.24415537875 -0.75415672374 0.60961937885 
0.15193797284 -0.80397425568 0.57492629842 0.066583590032 -0.84123513271 0.53655389015 -0.010096630468 -0.86798507891 0.49648762405 
-0.07725741365 -0.88644744357 0.45633564602 -0.13476492556 -0.89871464335 0.41731331715 -0.18295396252 -0.90657995835 0.3803164823 
-0.22245154412 -0.91146566086 0.34604285803 -0.25406188975 -0.91443205537 0.31506598085 -0.27867250661 -0.91622127624 0.28788922702 
-0.29718929111 -0.91731372383 0.26497935264 -0.31047457262 -0.91799279347 0.24676865864 -0.31927965835 -0.91840819957 0.2336383503 
-0.32418005035 -0.9186295067 0.22589184219 -0.32418005035 -0.9186295067 0.22589184219 
FrenetNormal 3 128 double
-0.1282272624 -0.93403400137 0.33337404437 -0.1282272624 -0.93403400137 0.33337404437 -0.12973194991 -0.94061655801 0.3137038603 
-0.12852955805 -0.9490658867 0.28767011561 -0.12198975373 -0.95831279295 0.25837006571 -0.10815312477 -0.96789073421 0.22691502424 
-0.085621528392 -0.97744687817 0.19304547195 -0.053518933709 -0.98636114716 0.15565156956 -0.011448364251 -0.99348326886 0.11340162899 
0.0403986615 -0.99706321079 0.065060755032 0.10108046256 -0.99483115848 0.0096801965369 0.16878205682 -0.98421367702 -0.053254626624 
0.24084087721 -0.96265649137 -0.12364526472 0.31392134459 -0.92798150065 -0.20075787372 0.38448552495 -0.87868435514 -0.28299237646 
0.4492343851 -0.81408946814 -0.36803098389 0.50572765527 -0.73445187726 -0.45257041296 0.55270061859 -0.64098578114 -0.53259670914 
0.59028154419 -0.53590650807 -0.60363226653 0.61961300085 -0.42219426827 -0.66168854382 0.64252724926 -0.30336256055 -0.7036546673 
0.66079481013 -0.18298905298 -0.72791841947 0.67584823514 -0.064531605685 -0.73421034788 0.68868007762 0.048798050124 -0.7234213855 
0.70017552996 0.15402389985 -0.69715913931 0.71127502348 0.24854969381 -0.65750352903 0.72349389151 0.33005364935 -0.60631771993 
0.73880775866 0.3965203219 -0.54491717725 0.75992069149 0.44571351649 -0.47313846162 0.79043215164 0.47406084214 -0.38792181119 
0.83399436881 0.47463130164 -0.2813867806 0.89156361803 0.43189344447 -0.13631715822 0.94680696153 0.31231206383 0.077574173441 
0.923760288 0.070769216343 0.37637567446 0.71260119178 -0.2443246477 0.6576511294 0.40511462353 -0.46353726378 0.78804526957 
0.1535899294 -0.55347388081 0.81858218699 -0.027654608342 -0.56657473671 0.82354616772 -0.166141905 -0.53387488989 0.8290804963 
-0.28210768082 -0.46470972599 0.83932122992 -0.38561613013 -0.35828031346 0.85025608917 -0.47852999337 -0.21008525423 0.85256860803 
-0.55498020695 -0.018073838866 0.83166718478 -0.60237828773 0.20856142008 0.77048201311 -0.60761374416 0.44276608727 0.65936615766 
-0.56787489306 0.64794511353 0.50762706359 -0.49426048542 0.79970695292 0.34084507037 -0.40232685961 0.89657456116 0.18516790844 
-0.30214200166 0.95153915798 0.057301323369 -0.19546148174 0.98012465381 -0.03391861062 -0.076175540892 0.99375370827 -0.081552769806 
0.071573793169 0.99474120101 -0.073260734019 0.27684795211 0.9607521869 0.017619500227 0.55891528509 0.79762039502 0.22674966273 
0.79001355066 0.38270704865 0.47897171596 0.81319868711 -0.071375047265 0.57759284787 0.75593717898 -0.36089753793 0.54617941059 
0.70951311132 -0.53430108011 0.45947089208 0.6823199085 -0.64776296608 0.33888446738 0.66388753675 -0.72359565462 0.18884561727 
0.64180885501 -0.76671412085 0.015193765983 0.60601776356 -0.77713654185 -0.16970935617 0.55196626754 -0.75730221574 -0.34903666503 
0.48113327454 -0.71457848295 -0.50782710034 0.39903968213 -0.65874787809 -0.63782330249 0.31187708592 -0.59872644174 -0.73773933828 
0.22537301034 -0.54055836979 -0.81055761983 0.14474316718 -0.48753378959 -0.86102277529 0.075285569526 -0.44097015621 -0.89435865532 
0.025286014934 -0.40008706712 -0.91612824221 0.012057059348 -0.36038298271 -0.93272650498 0.092654757681 -0.30102996504 -0.94910276368 
0.5256468759 -0.080060278543 -0.84692721863 0.90436878668 0.40525192589 0.13374593169 0.74124289001 0.47409867361 0.47517304816 
0.68044018531 0.50375138554 0.53219892501 0.65632848662 0.54157955981 0.5252851588 0.64129450105 0.58804474344 0.49289425096 
0.62510849198 0.64049219102 0.44610438968 0.60354274303 0.69569877856 0.38953737542 0.57498143292 0.75033510336 0.32618029442 
0.53931952614 0.8013766352 0.25870820876 0.49736215698 0.84650776076 0.18988284749 0.4504595278 0.8843694649 0.12237999578 
0.3998769476 0.91467079375 0.058955626062 0.34681488468 0.93793192769 0.0017705334382 0.29210086606 0.9552105878 -0.047432235936 
0.23636841216 0.96770013737 -0.0876722183 0.18001874191 0.9765026463 -0.11847292654 0.12371146889 0.98234064298 -0.14036500137 
0.068136341871 0.98569222804 -0.154169616 0.014080915801 0.98688414437 -0.16081484199 -0.037707979454 0.98623917996 -0.16096704069 
-0.087073171386 0.98422537886 -0.15400865699 -0.13498699972 0.98132755015 -0.13702098095 -0.18595031593 0.97743305911 -0.10023519821 
-0.25542678404 0.96676253112 -0.011285672979 -0.40738786358 0.86661666621 0.28811574488 -0.40162968617 -0.29645590259 0.86649148467 
-0.11681400587 -0.7945206363 0.59589549967 -0.055726491757 -0.87205428253 0.48622616798 -0.054567100825 -0.89951258129 0.43347381421 
-0.081132488737 -0.91382957844 0.3979108202 -0.12610150407 -0.92208278244 0.3658712246 -0.18551694475 -0.92521718689 0.33099338406 
-0.25689563437 -0.92196075153 0.28981546833 -0.3375638105 -0.91015797718 0.2401314857 -0.42421475489 -0.88728802479 0.18100221768 
-0.51268272645 -0.85113118976 0.11283669535 -0.59796667011 -0.80065862827 0.037170181742 -0.67524659399 -0.73633972829 -0.04296326149 
-0.74016633031 -0.66080970861 -0.12443605782 -0.7902075114 -0.57793803709 -0.20386199793 -0.82439374473 -0.49245488353 -0.279039677 
-0.84347564683 -0.40868899787 -0.34860025276 -0.84886476165 -0.33038049951 -0.41264675204 -0.84241949228 -0.26011538424 -0.47187857114 
-0.82616932862 -0.19929049268 -0.52699861478 -0.8013522469 -0.14886400067 -0.57937387384 -0.76940985675 -0.1087761092 -0.62942531757 
-0.73173129894 -0.078464428762 -0.67706176939 -0.69017030843 -0.056807894865 -0.72141375676 -0.64683912649 -0.042516164503 -0.76144042459 
-0.60514303924 -0.033710678319 -0.7954027233 -0.56827186482 -0.028859103082 -0.82233462764 -0.54026952809 -0.026146122996 -0.84108573717 
-0.52366172708 -0.024604301964 -0.85157091537 -0.52366172708 -0.024604301964 -0.85157091537 
FrenetBinormal 3 128 double
0.3715237479 0.26642988085 0.88937350047 0.3715237479 0.26642988085 0.88937350047 0.36894880745 0.24786734453 0.89578934856 
0.3656923035 0.22427638633 0.90331015808 0.36237535148 0.19934090002 0.91046543604 0.35938850855 0.17475057623 0.91667995289 
0.35694938157 0.15080150537 0.92187094811 0.35519678886 0.12687603759 0.92614130254 0.35432021237 0.10202007403 0.92954240979 
0.35464649591 0.075182897414 0.93197285093 0.35670144366 0.045322581642 0.93311839746 0.36124810936 0.011499177256 0.9323988269 
0.36927187995 -0.026927757597 0.92893120011 0.38190748979 -0.07016958231 0.92153290715 0.40019990858 -0.11759297819 0.90885198171 
0.42485931848 -0.16771431956 0.88958780709 0.45580524269 -0.21791865472 0.86299075352 0.49195458209 -0.26490524427 0.82934064215 
0.53113316724 -0.30525355114 0.79039093376 0.57063278664 -0.33654015173 0.74907873357 0.60760662812 -0.35779994787 0.70907924999 
0.63977636314 -0.36980366917 0.6737443517 0.6655440243 -0.37456776311 0.64556188127 0.68399092198 -0.3747685407 0.62586337131 
0.69453514693 -0.37321775734 0.61508490087 0.69678437011 -0.37257299368 0.61292814094 0.6899377295 -0.37534648036 0.61895149171 