# vtk DataFile Version 4.2
vtk output
ASCII
DATASET POLYDATA
POINTS 128 float
0 0 0 -0.257428 -0.179046 0.116692 -0.777079 -0.510303 0.349546 
-1.24185 -0.73653 0.551271 -1.65397 -0.866795 0.721939 -2.0979 -0.97851 0.899523 
-2.56816 -1.0731 1.0803 -3.03967 -1.1364 1.25165 -3.51109 -1.17906 1.41293 
-3.98691 -1.21829 1.56666 -4.4656 -1.2675 1.71345 -4.9435 -1.33891 1.85365 
-5.41561 -1.44468 1.98931 -5.87639 -1.5953 2.12304 -6.31961 -1.79191 2.25741 
-6.73975 -2.03145 2.39476 -7.13718 -2.3054 2.53592 -7.51492 -2.60354 2.68081 
-7.87896 -2.91758 2.82696 -8.23639 -3.24029 2.97049 -8.59396 -3.56686 3.10435 
-8.95811 -3.89356 3.21949 -9.33398 -4.21721 3.30163 -9.72478 -4.53456 3.33363 
-10.1233 -4.83983 3.29365 -10.5166 -5.12631 3.16018 -10.8828 -5.38893 2.93137 
-11.1976 -5.62431 2.61609 -11.4502 -5.83656 2.2339 -11.6367 -6.03324 1.80879 
-11.758 -6.22008 1.35729 -11.8178 -6.40167 0.891776 -11.8205 -6.58083 0.421513 
-11.7711 -6.75936 -0.046137 -11.6752 -6.93852 -0.506204 -11.5388 -7.11929 -0.955182 
-11.368 -7.30292 -1.3909 -11.1687 -7.49084 -1.8121 -10.9462 -7.68485 -2.21884 
-10.7052 -7.88722 -2.61171 -10.4509 -8.10299 -2.98776 -10.1882 -8.33887 -3.34227 
-9.91984 -8.59999 -3.6772 -9.64805 -8.89217 -3.99524 -9.38932 -9.24565 -4.24596 
-9.17097 -9.70094 -4.34299 -9.02876 -10.1877 -4.23769 -8.99978 -10.5586 -3.91779 
-9.06065 -10.7767 -3.4507 -9.15071 -10.8784 -2.95038 -9.24601 -10.89 -2.45959 
-9.34744 -10.8298 -1.97362 -9.45467 -10.7103 -1.49569 -9.56638 -10.5409 -1.03458 
-9.68374 -10.3332 -0.592221 -9.80954 -10.1001 -0.165309 -9.94385 -9.85386 0.251585 
-10.0844 -9.60582 0.665439 -10.2256 -9.36561 1.0835 -10.3594 -9.14138 1.51306 
-10.4772 -8.94127 1.95899 -10.5705 -8.77343 2.42392 -10.6334 -8.64573 2.90665 
-10.6626 -8.56572 3.40259 -10.6579 -8.53877 3.90533 -10.6222 -8.56821 4.40683 
-10.5587 -8.65674 4.89849 -10.4713 -8.80656 5.37105 -10.3635 -9.02148 5.81358 
-10.2387 -9.3068 6.2129 -10.1032 -9.66591 6.54274 -9.9671 -10.0993 6.76369 
-9.84393 -10.585 6.85161 -9.75058 -11.0777 6.80064 -9.69357 -11.5502 6.63192 
-9.66798 -11.9966 6.39465 -9.66873 -12.4203 6.1248 -9.69128 -12.8342 5.84169 
-9.73238 -13.2498 5.56217 -9.79029 -13.6759 5.30125 -9.86212 -14.1193 5.07457 
-9.94342 -14.5834 4.89854 -10.0276 -15.0669 4.78484 -10.1056 -15.562 4.73869 
-10.1689 -16.061 4.75811 -10.2101 -16.5573 4.8319 -10.2229 -17.0463 4.94893 
-10.2021 -17.5259 5.09914 -10.1423 -17.9936 5.27461 -10.0383 -18.4452 5.47053 
-9.88423 -18.8745 5.68355 -9.6742 -19.2713 5.91225 -9.40523 -19.6222 6.15517 
-9.07939 -19.909 6.4106 -8.70532 -20.1187 6.67631 -8.30208 -20.2486 6.94938 
-7.88699 -20.3044 7.22825 -7.47238 -20.3052 7.51398 -7.06632 -20.2707 7.80805 
-6.66987 -20.2182 8.11229 -6.28248 -20.1623 8.42736 -5.90201 -20.1114 8.75155 
-5.52589 -20.0711 9.08226 -5.15102 -20.0418 9.41554 -4.77417 -20.0214 9.74719 
-4.39194 -20.004 10.0729 -4.00142 -19.9825 10.3884 -3.60095 -19.9484 10.6901 
-3.1901 -19.8939 10.9746 -2.77108 -19.8137 11.2404 -2.34675 -19.7051 11.487 
-1.92065 -19.5699 11.7169 -1.49579 -19.4121 11.9339 -1.0734 -19.2389 12.144 
-0.654081 -19.0587 12.3541 -0.237418 -18.8821 12.5723 0.176799 -18.7215 12.8071 
0.587644 -18.5939 13.0685 0.990348 -18.5193 13.3646 1.36853 -18.5233 13.6966 
1.70251 -18.6272 14.0607 1.9693 -18.8333 14.4406 2.15411 -19.1288 14.8163 
2.2727 -19.461 15.1629 2.33922 -19.8009 15.474 2.3381 -20.2381 15.8158 
2.27308 -20.773 16.1948 2.22906 -21.0466 16.3821 
LINES 1 129
128 0 1 2 3 4 5 6 7 8 9 10 11 12 13 14 15 16 17 18 19 20 21 22 23 24 25 26 27 28 29 30 31 32 33 34 35 36 37 38 39 40 41 42 43 44 45 46 47 48 49 50 51 52 53 54 55 56 57 58 59 60 61 62 63 64 65 66 67 68 69 70 71 72 73 74 75 76 77 78 79 80 81 82 83 84 85 86 87 88 89 90 91 92 93 94 95 96 97 98 99 100 101 102 103 104 105 106 107 108 109 110 111 112 113 114 115 116 117 118 119 120 121 122 123 124 125 126 127 

CELL_DATA 1
FIELD FieldData 2
Length 1 1 double
55.615780914 
Tortuosity 1 1 double
1.0780221862 
POINT_DATA 128
SCALARS MaximumInscribedSphereRadius float
LOOKUP_TABLE default
1.24 1.14945 1.05889 1.1241 1.20372 1.47275 1.74771 1.80839 1.85634 
1.86 1.86 1.81698 1.76942 1.5438 1.29529 1.19951 1.1269 1.10285 
1.08737 1.03785 0.981382 0.896266 0.804487 0.757812 0.72293 0.794067 0.895658 
0.930573 0.945042 1.00593 1.0822 1.12265 1.15015 1.09335 1.00329 0.960193 
0.937312 0.984972 1.06576 1.21857 1.40826 1.55847 1.68673 1.68813 1.61302 
1.5349 1.45476 1.41515 1.39688 1.37393 1.34851 1.42551 1.55997 1.72658 
1.91266 1.92622 1.82678 1.75116 1.69245 1.69985 1.75803 1.73632 1.64845 
1.63299 1.68182 1.74142 1.81124 1.84976 1.8565 1.85617 1.84819 1.77231 
1.61948 1.46891 1.32094 1.24 1.24 1.24 1.24 1.24 1.24 
1.23353 1.21727 1.1752 1.09125 1.03506 1.02731 1.05626 1.15446 1.25387 
1.35574 1.44506 1.50666 1.5553 1.57316 1.60927 1.6917 1.72259 1.61084 
1.50034 1.3937 1.33215 1.42411 1.50243 1.52869 1.55 1.55 1.5545 
1.58112 1.62785 1.78815 1.93276 1.97382 1.98894 1.79917 1.62364 1.58713 
1.55894 1.63416 1.71181 1.82811 1.93797 1.92641 1.91881 2.03995 2.16423 
2.32211 2.48 
TEXTURE_COORDINATES TCoords 2 float
0 0 0.00787402 0 0.015748 0 0.023622 0 0.0314961 
0 0.0393701 0 0.0472441 0 0.0551181 0 0.0629921 0 
0.0708661 0 0.0787402 0 0.0866142 0 0.0944882 0 0.102362 
0 0.110236 0 0.11811 0 0.125984 0 0.133858 0 
0.141732 0 0.149606 0 0.15748 0 0.165354 0 0.173228 
0 0.181102 0 0.188976 0 0.19685 0 0.204724 0 
0.212598 0 0.220472 0 0.228346 0 0.23622 0 0.244094 
0 0.251969 0 0.259843 0 0.267717 0 0.275591 0 
0.283465 0 0.291339 0 0.299213 0 0.307087 0 0.314961 
0 0.322835 0 0.330709 0 0.338583 0 0.346457 0 
0.354331 0 0.362205 0 0.370079 0 0.377953 0 0.385827 
0 0.393701 0 0.401575 0 0.409449 0 0.417323 0 
0.425197 0 0.433071 0 0.440945 0 0.448819 0 0.456693 
0 0.464567 0 0.472441 0 0.480315 0 0.488189 0 
0.496063 0 0.503937 0 0.511811 0 0.519685 0 0.527559 
0 0.535433 0 0.543307 0 0.551181 0 0.559055 0 
0.566929 0 0.574803 0 0.582677 0 0.590551 0 0.598425 
0 0.606299 0 0.614173 0 0.622047 0 0.629921 0 
0.637795 0 0.645669 0 0.653543 0 0.661417 0 0.669291 
0 0.677165 0 0.685039 0 0.692913 0 0.700787 0 
0.708661 0 0.716535 0 0.724409 0 0.732283 0 0.740157 
0 0.748031 0 0.755906 0 0.76378 0 0.771654 0 
0.779528 0 0.787402 0 0.795276 0 0.80315 0 0.811024 
0 0.818898 0 0.826772 0 0.834646 0 0.84252 0 
0.850394 0 0.858268 0 0.866142 0 0.874016 0 0.88189 
0 0.889764 0 0.897638 0 0.905512 0 0.913386 0 
0.92126 0 0.929134 0 0.937008 0 0.944882 0 0.952756 
0 0.96063 0 0.968504 0 0.976378 0 0.984252 0 
0.992126 0 1 0 
FIELD FieldData 7
Curvature 1 128 double
0 0.016036746582 0.027910265448 0.035556696332 0.03790144559 0.034689442149 0.026719435622 0.017053550573 0.016853559877 
0.030378336225 0.047119745227 0.062894770513 0.075792153992 0.084773169857 0.089710683586 0.091631039628 0.092826703419 0.096568844615 
0.10609924036 0.12319400944 0.14773564078 0.17836302784 0.21298242694 0.24864492499 0.28144309956 0.30689657328 0.32114436372 
0.3223166835 0.31135436639 0.29128246353 0.26600853715 0.23897128371 0.21267062206 0.18886274096 0.16887454237 0.15416050533 
0.14660320732 0.14858657718 0.1628312573 0.19258191083 0.24306316892 0.32386820216 0.45190239391 0.65148227351 0.93763368833 
1.2529866459 1.4083057283 1.2634514996 0.95107476439 0.66137167311 0.45468731381 0.31685295927 0.22317065368 0.15568645774 
0.10355049846 0.060919779654 0.027514683506 0.02846687681 0.058726738318 0.092544214887 0.12731957433 0.16294836404 0.19981622858 
0.23868139783 0.28061132895 0.32672955779 0.37741774695 0.43051506216 0.47949745442 0.51243833372 0.51597355264 0.48322569415 
0.41971905258 0.33981540936 0.25796495984 0.18300511592 0.11853543165 0.066418862129 0.037500871597 0.053392430899 0.085169248931 
0.11610525062 0.14354391015 0.16717981356 0.18756848978 0.2058271249 0.22313805933 0.2402241417 0.25686715688 0.27173242537 
0.282440845 0.2862307086 0.28086825099 0.26572724187 0.2420178623 0.2125191006 0.18060137949 0.14920778046 0.12046641416 
0.09572389999 0.075619570079 0.060543288289 0.050632334986 0.045719104426 0.044864049386 0.046224896989 0.047670880638 0.047300558054 
0.043507594082 0.035184206493 0.021566446077 0.0024541775897 0.022436118484 0.052894485287 0.088915181259 0.13020677576 0.17577796544 
0.22285590349 0.26617527186 0.29789285961 0.3101412432 0.29863356055 0.26547088547 0.21751352811 0.16233513779 0.10540459077 
0.049177722399 0 
Torsion 1 128 double
0 0 0.044346006504 0.07221350532 0.12161141521 0.22755387754 0.52486853535 1.5965232181 1.8646067256 
0.59886563971 0.22698834237 0.086441239733 0.0035439428234 -0.068769293068 -0.14921353489 -0.24440955829 -0.34348489495 -0.40836446337 
-0.39706518946 -0.31658373597 -0.2131272599 -0.11991282931 -0.046184652931 0.010275142918 0.054020069425 0.088899663386 0.11771752663 
0.14237603333 0.16399770414 0.18363131526 0.20277074388 0.22374746262 0.25028270254 0.28663277189 0.3356804343 0.39423037205 
0.44587910139 0.46211858438 0.42507813728 0.34688956172 0.25463130805 0.16699676255 0.090726385542 0.027188066755 -0.021421715018 
-0.05340925474 -0.074159547405 -0.091109554135 -0.10363422073 -0.10734615916 -0.1037423593 -0.099670986089 -0.10396951004 -0.12961653387 
-0.21221470423 -0.50954859137 -2.2530825786 -1.9864762143 -0.45803874521 -0.19359546671 -0.11904990751 -0.09512182627 -0.090511600692 
-0.094593814958 -0.10243628933 -0.11087111134 -0.1175632362 -0.12109113516 -0.12164871725 -0.12061939913 -0.12012975587 -0.1226946143 
-0.13090786341 -0.14877393616 -0.18451915046 -0.25992328233 -0.44798793664 -1.0812000101 -2.7756465527 -1.2525261105 -0.51311780069 
-0.32112064956 -0.25918888921 -0.23747282016 -0.22776784498 -0.21717877896 -0.1991671327 -0.17181499986 -0.13722390488 -0.099408877976 
-0.062325720541 -0.029043640959 -0.0010001511031 0.021598492892 0.038791493911 0.050462985315 0.055808493745 0.052741312682 0.03681479179 
0.00090029117383 -0.062860999236 -0.15537668123 -0.24857958278 -0.28318421979 -0.23439210546 -0.14925240306 -0.075040232168 -0.02492207275 
0.0054527660203 0.025758507562 0.061606592822 4.38519613 0.095013818218 0.039135966101 0.02695470466 0.020560780429 0.015512859662 
0.011270707895 0.0074694922034 0.0043649988648 0.0018544234153 -0.00015058649897 -0.0013580312823 -0.0019535720104 -0.0020134108042 -0.0015937589067 
0 0 
Abscissas 1 128 double
0 0.50241869802 1.004837396 1.5072578919 2.0096785543 2.5120946768 3.0145106576 3.5169296949 4.0193489137 
4.5217713951 5.024194146 5.5266119904 6.0290293178 6.5314476099 7.0338660259 7.5362841942 8.038702325 8.541123752 
9.0435457611 9.5459647877 10.048383207 10.550799821 11.053216017 11.555649122 12.058086648 12.560509392 13.06292789 
13.565337251 14.06774381 14.570155202 15.072568197 15.574987209 16.077408394 16.579828445 17.08224805 17.584667474 
18.087086821 18.589501529 19.091914057 19.594334482 20.09675895 20.599182578 21.101605739 21.604024518 22.106440654 
22.608864246 23.111292847 23.613714513 24.116132527 24.618549165 25.120965075 25.623378324 26.125790081 26.628211937 
27.130639914 27.633065511 28.135489551 28.637909456 29.140326428 29.642740855 30.145153328 30.647569287 31.149988132 
31.65240729 32.154826725 32.657245722 33.159664304 33.66208536 34.164508927 34.666931784 35.169353876 35.671763588 
36.174159276 36.676578168 37.17902357 37.681457367 38.183877154 38.686301276 39.188731042 39.691154709 40.193569795 
40.695985618 41.198402558 41.700822182 42.203246161 42.705668946 43.208089647 43.710505918 44.21291383 44.715324538 
45.217740961 45.720157071 46.222572487 46.724991402 47.22741862 47.7298429 48.232259717 48.734677375 49.237097362 
49.739518595 50.241943637 50.744366683 51.24678293 51.749200826 52.25162501 52.754046868 53.256458703 53.758871469 
54.261288808 54.763706865 55.266128971 55.768548088 56.270947478 56.773350323 57.275780455 57.778210483 58.280639503 
58.783066491 59.28546825 59.787871912 60.2903057 60.792737559 61.295133039 61.797530046 62.299976696 62.80241903 
63.304815004 63.807210978 
ParallelTransportNormals 3 128 double
0.40992315385 0 0.91212006224 0.40175473624 -0.004228777049 0.91567992639 0.39358631863 -0.008457554098 0.91923979055 
0.38096993958 -0.012480493089 0.92439410483 0.36794173403 -0.016484374008 0.92969604558 0.35129388942 -0.019298776357 0.93588726082 
0.33453297205 -0.022076020959 0.94210625583 0.3184548947 -0.023777107131 0.94748522722 0.30241737038 -0.025414281566 0.95281431064 
0.29300589711 -0.026721556737 0.9556909044 0.28414146357 -0.028001595776 0.95836502323 0.28845167215 -0.026608884467 0.95710460481 
0.2941500901 -0.024934545998 0.955429605 0.3101286223 -0.016846230623 0.95032935623 0.3274288254 -0.0079332973044 0.94478873766 
0.34162905604 0.0020146924078 0.93966467945 0.35535927867 0.012119614095 0.9346037788 0.35468670543 0.011251719579 0.93490699353 
0.3514708577 0.0084462232363 0.93615741447 0.32266864998 -0.017177529826 0.94521447966 0.28865270977 -0.047450958983 0.95586230472 
0.21117180628 -0.11170183558 0.96449485748 0.12358504838 -0.18385266449 0.9726588478 -0.0083773809926 -0.28429271835 0.94136491549 
-0.15194264748 -0.39212951143 0.89975398213 -0.27787513558 -0.48756068565 0.8074748956 -0.39874234272 -0.57942815916 0.7006406195 
-0.46715321541 -0.64124176482 0.59575033321 -0.51947876873 -0.69383959002 0.49145615599 -0.54199485165 -0.72981734633 0.40886656762 
-0.55463023911 -0.76028618761 0.3334712175 -0.55517019293 -0.7827660748 0.27614445582 -0.55134063898 -0.80235993094 0.22534502007 
-0.54411149096 -0.81680848463 0.1888558237 -0.53554154694 -0.82922773692 0.15801056936 -0.52865934364 -0.83720092746 0.1391878445 
-0.52250362042 -0.84326033155 0.12554016108 -0.52180341545 -0.84409936186 0.12330075579 -0.52366550888 -0.84248653429 0.12641948722 
-0.53576393314 -0.831516546 0.14328732241 -0.55310308517 -0.81575594153 0.1671943312 -0.59150468493 -0.77282721474 0.21182792627 
-0.64161785518 -0.71479191611 0.26798633932 -0.73300106359 -0.54630768764 0.31943134208 -0.84927436873 -0.31121134369 0.36803367147 
-0.91750770728 -0.071609157383 0.28280818764 -0.9534624859 0.17102055191 0.1076623855 -0.95567207318 0.27470547814 -0.021550342599 
-0.94011479778 0.30523589607 -0.12657928075 -0.92727606773 0.31265482277 -0.19893603532 -0.91587667092 0.30783737555 -0.2539945095 
-0.905142606 0.29679203194 -0.30121727979 -0.89478181228 0.28225265117 -0.34404398455 -0.88541241321 0.26702865171 -0.379033485 
-0.87664375554 0.25138980355 -0.40927398564 -0.87233438584 0.24371657957 -0.42380741359 -0.87094559289 0.24126038056 -0.42805361375 
-0.87640607478 0.25054404248 -0.40962228335 -0.88672654793 0.26815787411 -0.37509981876 -0.89947001451 0.29078163595 -0.31793001683 
-0.91407447053 0.31725329403 -0.24336584005 -0.92394556545 0.33769877403 -0.1563438805 -0.92989682068 0.35315379344 -0.059005253695 
-0.92928203948 0.35729818819 0.037728164554 -0.92283805217 0.35140121886 0.1339242898 -0.91139100331 0.3336685405 0.22615449727 
-0.89519341019 0.30469753158 0.31461895694 -0.8738063073 0.25852893284 0.40088967875 -0.84715295105 0.19490842267 0.48493422123 
-0.81588596498 0.10424783687 0.55629884184 -0.77963985009 -0.015594981883 0.61397901721 -0.75052845997 -0.13237179962 0.6399751074 
-0.7295002177 -0.24567505104 0.63007532868 -0.71734397883 -0.32149317376 0.61732137409 -0.71532376981 -0.35448552582 0.60130659888 
-0.71379826963 -0.36443569028 0.59779300863 -0.71287004947 -0.346566182 0.60937255455 -0.70912435343 -0.31220147438 0.62990147417 
-0.70171179561 -0.25636875126 0.66207773973 -0.69134596268 -0.1875715078 0.6935794453 -0.67682340688 -0.10052675397 0.7241317104 
-0.66336793582 -0.015696587082 0.74518941552 -0.65153024126 0.065776108182 0.75185269115 -0.64318593829 0.13106673694 0.75376273941 
-0.64051204694 0.17009092069 0.74795743284 -0.63879745216 0.19466432729 0.74434087475 -0.63875699338 0.19401866528 0.74454405572 
-0.6366378216 0.18558019392 0.74823780386 -0.63059575533 0.16243533026 0.75851886187 -0.62108133283 0.13755862976 0.77108360657 
-0.60446805628 0.10914137748 0.7883170999 -0.58709836583 0.084805834714 0.80479214104 -0.56805693099 0.069491246142 0.81959093293 
-0.55473088492 0.058738217765 0.8299538681 -0.55496563307 0.058808316467 0.82979193042 -0.56067729388 0.058898519185 0.82576595049 
-0.58029903884 0.05903978143 0.81192620207 -0.60054725601 0.058458272962 0.79722110531 -0.62252910091 0.055876651286 0.78012134232 
-0.64204142754 0.053576778049 0.76472453366 -0.65400050588 0.052138658276 0.75453636711 -0.66259752004 0.051075794455 0.7472281708 
-0.65975055195 0.051290247849 0.7497229784 -0.65374926079 0.051680239217 0.75480728603 -0.63571729656 0.052739737143 0.76976801645 
-0.61569729029 0.054193268718 0.78584007838 -0.58710978158 0.057344895308 0.80670144319 -0.55860558596 0.060991653459 0.82697452179 
-0.53051074183 0.067071196423 0.84435710851 -0.50428509325 0.073018118158 0.86038860855 -0.4886206539 0.078215711899 0.86878628504 
-0.47535304126 0.082593064745 0.87590843286 -0.47789727923 0.081559293604 0.87461592611 -0.48276720371 0.079619068723 0.87202507284 
-0.5060142849 0.070516209384 0.85917491889 -0.53157679688 0.06121835321 0.84441794296 -0.57973402828 0.050017655113 0.81105358401 
-0.62931946483 0.040436355959 0.77525477666 -0.69664798047 0.050973401512 0.70921198733 -0.76274130268 0.06366829794 0.64266999766 
-0.80928462617 0.11051653524 0.56822692479 -0.85416357843 0.15747626148 0.4950911082 -0.86767660535 0.20653705364 0.4465912036 
-0.88075613132 0.25554904962 0.39844470728 -0.87972970658 0.30297323736 0.36179797795 -0.8787906991 0.34635846104 0.32827233153 
-0.8787906991 0.34635846104 0.32827233153 -0.8787906991 0.34635846104 0.32827233153 
FrenetTangent 3 128 double
-0.87404100669 -0.33290820705 0.35387066041 -0.87404100669 -0.33290820705 0.35387066041 -0.87843482307 -0.32313665661 0.35204397848 
-0.88468195371 -0.30905676579 0.34902973556 -0.89180261944 -0.2928797726 0.34483260687 -0.89880337664 -0.27721874054 0.3395618648 
-0.90483250125 -0.26474703149 0.33344737816 -0.90923775363 -0.25785049851 0.32680242928 -0.91153617177 -0.25833734871 0.31994315404 
-0.91134822993 -0.26724391672 0.31308959226 -0.90835981027 -0.28474175543 0.30627534637 -0.90235513593 -0.3101400809 0.29927970006 
-0.89331904473 -0.34198648859 0.29159273986 -0.88156233374 -0.37827208131 0.28241473798 -0.86779605166 -0.41672749597 0.27068100565 
-0.85308404416 -0.45515976169 0.25510234209 -0.8386517044 -0.49174222727 0.2342069611 -0.82559410117 -0.52516953142 0.2063767026 
-0.81455300464 -0.55465393651 0.16988941505 -0.80543180278 -0.5797860415 0.12299494766 -0.79718922985 -0.60032039022 0.064068407928 
-0.78773612402 -0.61595939321 -0.0081132503232 -0.77397543261 -0.6262078519 -0.093945494526 -0.75207534746 -0.63035559543 -0.19244348536 
-0.71807100726 -0.62764918472 -0.30071669299 -0.66879462302 -0.61765412371 -0.41378392392 -0.60290134819 -0.6006788234 -0.52506658194 
-0.52150934017 -0.5780350417 -0.62761731866 -0.42803464839 -0.55193019591 -0.71565312731 -0.32727440143 -0.52501167302 -0.78565527387 
-0.22423333536 -0.49982402638 -0.83659748623 -0.12322100492 -0.47843994068 -0.86943188756 -0.027461153596 -0.46235681819 -0.88626861488 
0.060936856954 -0.45259498429 -0.88963165392 0.14080859806 -0.44987128845 -0.88192333144 0.21171427468 -0.45476255888 -0.86508270179 
0.27374692017 -0.46782165911 -0.84036035066 0.32735969998 -0.48963467731 -0.80814201079 0.37320691832 -0.52082779697 -0.76775972935 
0.41194767413 -0.56202775733 -0.71723351412 0.44399595394 -0.61371917064 -0.65285248906 0.46911255006 -0.6758310996 -0.56849427454 
0.48563025632 -0.74661595163 -0.45467337169 0.48900660881 -0.81981873378 -0.29794257883 0.46977424633 -0.87881545972 -0.083639376122 
0.41378591868 -0.89026362323 0.19029423178 0.31324423146 -0.81527025531 0.48704462041 0.18545264329 -0.65255510296 0.73469664128 
0.064061443038 -0.45200774091 0.88971070224 -0.031109440186 -0.2632155132 0.96423534282 -0.098826138736 -0.10599240371 0.9894437855 
-0.1448962346 0.018650125587 0.98927107206 -0.17519533404 0.11518420065 0.97777256806 -0.19397242333 0.18817814581 0.96278953278 
-0.20396059544 0.24105330728 0.94883790953 -0.20679125271 0.27613857906 0.9386079389 -0.20335576361 0.29491889471 0.93363230393 
-0.19405972319 0.29826603538 0.93454705391 -0.17904705057 0.28660668679 0.94116882692 -0.15838180332 0.26004626421 0.95251831733 
-0.13220458084 0.21849667655 0.96684080962 -0.10087422676 0.16180923354 0.98165277075 -0.065062782316 0.089908427134 0.99382257425 
-0.025806209232 0.0029043990456 0.99966274515 0.015485032984 -0.098764685049 0.99499032696 0.057014076365 -0.21410095244 0.97514623378 
0.096562825701 -0.34110194523 0.93505351914 0.13142291806 -0.47595211832 0.86959622681 0.15843503819 -0.61204114284 0.77479286144 
0.17437046795 -0.73957795083 0.65009183548 0.17689378078 -0.8471525336 0.50104009334 0.16577770201 -0.92570762952 0.33997520229 
0.14336796091 -0.97264171963 0.18279418211 0.11371689787 -0.99256229558 0.04345752559 0.081058276139 -0.99427090466 -0.069677284759 
0.048771754067 -0.98688480225 -0.15388210777 0.019185951128 -0.97750686311 -0.21002912142 -0.0061322959091 -0.97061869558 -0.24054467928 
-0.025993450979 -0.9683662612 -0.24817559244 -0.039292523936 -0.9710676835 -0.23554967972 -0.044884090849 -0.97769138162 -0.20519498214 
-0.041594087562 -0.9862813613 -0.1597467002 -0.028337539901 -0.99436713623 -0.10213218009 -0.0042816047794 -0.99935749679 -0.035584567847 
0.031012773023 -0.99885104438 0.036534901753 0.077502010605 -0.99078966038 0.11103732364 0.13461818362 -0.97344024976 0.18518105948 
0.20121908893 -0.94528860275 0.25678850395 0.27548874032 -0.90499253219 0.3241827735 0.35481575516 -0.85152763635 0.38601355472 
0.43574020211 -0.7845763434 0.44110139157 0.51413367654 -0.70505544308 0.48842950856 0.58574687369 -0.61551070613 0.52730178324 
0.64702245587 -0.52005052857 0.55759249397 0.69583849893 -0.42370725742 0.57989735593 0.73184287934 -0.33145040306 0.59543818342 
0.75625794374 -0.24724897713 0.60575726644 0.77130379357 -0.17357333028 0.61234202619 0.77956081301 -0.11136907846 0.61634557448 
0.78349754244 -0.060301648549 0.61846205394 0.78519741675 -0.019128983852 0.61894999693 0.78625184846 0.01394487901 0.61774879292 
0.7877553145 0.040963887726 0.61462470206 0.79033254558 0.063942990188 0.6093322258 0.79418668406 0.084645777814 0.60174961833 
0.79916249352 0.10437457402 0.59198416976 0.80483190452 0.12379986374 0.58044741295 0.81060266349 0.14288608871 0.56789689874 
0.81584479661 0.16088689145 0.55543917398 0.82001441354 0.17643387158 0.54446988029 0.8227202248 0.18769044436 0.53656661171 
0.82369719993 0.19254707489 0.53333717926 0.82269028334 0.18879029397 0.53622655902 0.81924968283 0.17419649039 0.54633830172 
0.81248145942 0.14664011898 0.56424334609 0.80082783261 0.10424290156 0.58975266001 0.78195773444 0.045655704498 0.62165718704 
0.75292514279 -0.029359336638 0.65745095537 0.71080657443 -0.11909043512 0.69323263196 0.65392285358 -0.21910108384 0.72414060557 
0.58331492377 -0.32225137036 0.74558551086 0.50352619095 -0.42010485702 0.7549657503 0.4218037924 -0.5053244328 0.75281390684 
0.34600163543 -0.57360862125 0.74246617291 0.28260545165 -0.62393223977 0.72858954074 0.2358893432 -0.65744124737 0.71563064777 
0.20813798765 -0.67599465665 0.70690155063 0.20813798765 -0.67599465665 0.70690155063 
FrenetNormal 3 128 double
-0.40646300724 0.90003900551 -0.15721835871 -0.40646300724 0.90003900551 -0.15721835871 -0.40095534391 0.899205713 -0.1751111016 
-0.39413009789 0.89569797574 -0.20588006748 -0.38920440123 0.88524318801 -0.25468496648 -0.3910715875 0.85705118552 -0.33544936854 
-0.40596308914 0.77254232014 -0.48823389255 -0.41029303366 0.42246786534 -0.80819584835 -0.13589933013 -0.54507170802 -0.82730176187 
0.10309423514 -0.88454046682 -0.45492828143 0.19412679963 -0.93580191961 -0.29426102853 0.24612030237 -0.94083971132 -0.23290649273 
0.28481267918 -0.93268298515 -0.22132371539 0.31467239992 -0.91683130426 -0.24576745158 0.33330843309 -0.89214612813 -0.30492749055 
0.33475546276 -0.85246807015 -0.40154323494 0.31174697136 -0.78596886075 -0.53391645018 0.26193209134 -0.68063972869 -0.6841937878 
0.19788631294 -0.54098577605 -0.81741996382 0.14472112033 -0.3936257828 -0.90780754593 0.12198541277 -0.26409724555 -0.95675085783 
0.13497698028 -0.15973844157 -0.97788795119 0.1805939424 -0.076095202334 -0.98060968186 0.25283087132 -0.0062832800792 -0.96749008827 
0.34493225295 0.054332660602 -0.93705373532 0.44938456394 0.10752868215 -0.88684333239 0.55822804504 0.1525846815 -0.81553624365 
0.6637518427 0.18737098224 -0.72410331192 0.75957004536 0.20940001416 -0.61579621651 0.84125331873 0.21676188833 -0.49528490538 
0.90648795095 0.20817981851 -0.36734283436 0.95446101533 0.18272973634 -0.2358262362 0.98489018476 0.1391420333 -0.1031058608 
0.99672958526 0.074984132504 0.030124968877 0.98636463105 -0.012907115611 0.16406773293 0.94617477012 -0.1263437817 0.29797743743 
0.86611791247 -0.26001562124 0.42688597823 0.74260630551 -0.39553002201 0.5404552495 0.58965959132 -0.50573454272 0.62970956692 
0.43357046849 -0.57140987747 0.69678361116 0.29426642858 -0.58832177112 0.75318308707 0.17575839714 -0.55939837884 0.81005088703 
0.071131118312 -0.48464848563 0.8718120264 -0.030981654565 -0.35767599427 0.93333167749 -0.14023768677 -0.16783328838 0.97578961796 
-0.25642528504 0.086588791381 0.96267775211 -0.35985259055 0.37271377385 0.85533067048 -0.42130633581 0.62265960234 0.65939062097 
-0.43264581108 0.79082121705 0.43291962859 -0.40910237898 0.88354718669 0.2279903779 -0.36830068839 0.92759807667 0.062581235846 
-0.32084041008 0.94491350512 -0.064806628513 -0.27009592065 0.94940615037 -0.16023780854 -0.21309637401 0.94991305884 -0.2285937795 
-0.1355246317 0.95292728904 -0.27122436469 0.01393153191 0.96007788737 -0.27938568789 0.4967388367 0.85280027321 -0.1611900187 
0.90515827692 -0.31282734839 0.28779774812 0.64359487569 -0.68942563861 0.33238219688 0.5409003257 -0.78421216662 0.30403637181 
0.49007201776 -0.83343878693 0.25536093252 0.45652495789 -0.86914768216 0.19017694237 0.42697845342 -0.8976487577 0.10916092762 
0.39511971461 -0.91853949725 0.012868687294 0.35733643197 -0.92884531126 -0.097760227839 0.31174312331 -0.92408011326 -0.22111573746 
0.25762866557 -0.89886246042 -0.35450493356 0.19531461423 -0.84757860718 -0.49341940184 0.12605415453 -0.76574497177 -0.63067026911 
0.051795275771 -0.65240311794 -0.7561001396 -0.024465807897 -0.51269560002 -0.85822179299 -0.099658293529 -0.35870644376 -0.92811524701 
-0.17194469913 -0.20637335472 -0.96324714321 -0.24251060442 -0.070149207229 -0.96760926797 -0.31672943789 0.040588470298 -0.94764710692 
-0.40625981883 0.12114453636 -0.90569142698 -0.53618777058 0.16724519805 -0.82736432024 -0.76704293043 0.15889690891 -0.62160832943 
-0.98373510109 -0.019360699003 0.17857887393 -0.39493351454 -0.20144581169 0.89635210941 -0.036367738713 -0.20366669365 0.97836458719 
0.14982811143 -0.16423426911 0.97497622631 0.28054847594 -0.10597817951 0.95397126692 0.38889321537 -0.034447746329 0.92063859348 
0.48367367039 0.046985051877 0.87398637602 0.56514753175 0.13540955386 0.813801278 0.62999989756 0.22832832385 0.74227104591 
0.67448119844 0.32381169694 0.66349159593 0.69591613647 0.42039961583 0.58220691684 0.69356447325 0.51660108391 0.5020872848 
0.66820033218 0.61031360937 0.42547104988 0.62206266148 0.69857295667 0.35360128591 0.55879566451 0.77793530852 0.28733962671 
0.48313853051 0.84538058222 0.22783509724 0.40049458258 0.89915711033 0.17641026122 0.31629479871 0.93914615336 0.13402277025 
0.23534388776 0.96667627846 0.10074833572 0.16178625614 0.98396198786 0.075126651483 0.099508713499 0.99358798859 0.053674247746 
0.053434659803 0.99813174909 0.029626822187 0.029974851385 0.99952518654 -0.0071351074295 0.03704091688 0.99688371396 -0.069647909696 
0.078384120244 0.9830089455 -0.16597994683 0.14226426068 0.94820321567 -0.28402736122 0.20191644655 0.89722794157 -0.39269806401 
0.23765220604 0.84971710777 -0.47064027211 0.2484675559 0.81788989675 -0.51896049026 0.24138783723 0.80202210069 -0.54634463669 
0.22439748282 0.79716859656 -0.56050691197 0.20312290105 0.79966376023 -0.5650477481 0.18011330063 0.80921040855 -0.55922957149 
0.048166722631 0.91342104707 -0.40415585806 -0.19309836339 -0.79436639952 0.57592972259 -0.19316692202 -0.81322732384 0.54895160078 
-0.21219225499 -0.82707943894 0.52049404281 -0.24716228537 -0.83943762218 0.48399925946 -0.29744350429 -0.84911287695 0.43650278802 
-0.36173754195 -0.85301673568 0.37617602181 -0.43662825839 -0.84739443779 0.30212320464 -0.5166720073 -0.82851775869 0.215889695 
-0.59453900944 -0.79481677954 0.12161271813 -0.66333851792 -0.74785837297 0.026265274126 -0.71831225791 -0.69289588578 -0.062632193075 
-0.75817528321 -0.63709009541 -0.13887566473 -0.78452952128 -0.58739006171 -0.19871171494 -0.80024421398 -0.54921398922 -0.24077622814 
-0.80817288883 -0.52595572837 -0.26500406328 -0.80817288883 -0.52595572837 -0.26500406328 
FrenetBinormal 3 128 double
-0.26615811536 -0.28125062532 -0.92198586941 -0.26615811536 -0.28125062532 -0.92198586941 -0.25997514077 -0.29497760401 -0.91945698068 
-0.24899659981 -0.31970150417 -0.91421640847 -0.23066864117 -0.36133908852 -0.90345229043 -0.19802904732 -0.43429602266 -0.87873287245 
-0.12834373744 -0.5771372219 -0.8064989226 0.07033017771 -0.86892693777 -0.48991799613 0.38811490519 -0.79759554122 0.46174470543 
0.39851722985 -0.38232035198 0.83367569592 0.37040145888 -0.20783863925 0.90532085986 0.35380786511 -0.13650555964 0.92530331609 
0.34765330733 -0.11466338054 0.93058556139 0.35189363799 -0.1277912048 0.92727572788 0.36855868073 -0.17439461048 0.91309967621 
0.40023292437 -0.25715322419 0.87959412546 0.44662864278 -0.37475663016 0.81245327472 0.49978591381 -0.51080967395 0.6994908987 
0.54529295776 -0.63221309764 0.5504200118 0.57474812605 -0.71337710168 0.40094600933 0.59127733838 -0.75489606833 0.28376581038 
0.60104327108 -0.77141276642 0.20897207969 0.60691668101 -0.77593378996 0.17198516188 0.60865361435 -0.77628109838 0.16409885448 