# vtk DataFile Version 4.2
vtk output
ASCII
DATASET POLYDATA
POINTS 128 float
0 0 0 -0.257719 0.0599847 0.205984 -0.783031 0.179073 0.584668 
-1.26408 0.279756 0.839069 -1.69783 0.355593 0.991369 -2.16138 0.418084 1.14256 
-2.64993 0.45775 1.29199 -3.14038 0.459937 1.41769 -3.62679 0.412101 1.52618 
-4.10665 0.303941 1.63092 -4.56867 0.133228 1.7376 -5.00133 -0.0970324 1.84982 
-5.4062 -0.369569 1.97287 -5.78992 -0.66319 2.11185 -6.16327 -0.960992 2.2678 
-6.5376 -1.24879 2.43979 -6.919 -1.51967 2.62348 -7.31144 -1.76988 2.81312 
-7.71726 -1.99886 3.00154 -8.13805 -2.2075 3.1808 -8.57444 -2.39855 3.34116 
-9.02654 -2.57578 3.47093 -9.49384 -2.74536 3.5497 -9.97253 -2.91398 3.55272 
-10.4362 -3.08494 3.45101 -10.8492 -3.25903 3.21915 -11.182 -3.42989 2.87472 
-11.4123 -3.58844 2.45468 -11.5495 -3.73096 1.98978 -11.6173 -3.85665 1.50612 
-11.6305 -3.96723 1.01584 -11.5989 -4.06623 0.524047 -11.5279 -4.1618 0.035472 
-11.4203 -4.26446 -0.445231 -11.2774 -4.3844 -0.912185 -11.1003 -4.53069 -1.35918 
-10.8922 -4.70336 -1.78346 -10.6583 -4.89707 -2.18448 -10.4031 -5.10601 -2.56387 
-10.1314 -5.32425 -2.9247 -9.84544 -5.54832 -3.27183 -9.54677 -5.77631 -3.61031 
-9.23885 -6.00707 -3.93416 -8.92551 -6.24048 -4.23192 -8.59553 -6.48409 -4.51875 
-8.23012 -6.7502 -4.81853 -7.85528 -7.04044 -5.00731 -7.53099 -7.34479 -4.86947 
-7.32601 -7.60204 -4.44462 -7.30238 -7.72641 -3.94717 -7.4071 -7.75048 -3.45339 
-7.53264 -7.76453 -2.9633 -7.65297 -7.78881 -2.47718 -7.7922 -7.80024 -1.99589 
-7.95285 -7.79133 -1.51927 -8.12286 -7.76473 -1.04645 -8.29201 -7.71531 -0.575962 
-8.451 -7.63293 -0.105965 -8.58358 -7.51462 0.364712 -8.66901 -7.36345 0.836726 
-8.69599 -7.19466 1.31035 -8.66108 -7.03244 1.78559 -8.57025 -6.89834 2.26226 
-8.43684 -6.8113 2.73994 -8.27432 -6.78571 3.21594 -8.09602 -6.83206 3.68536 
-7.91451 -6.95945 4.13834 -7.74155 -7.17542 4.56054 -7.58661 -7.47897 4.93378 
-7.45694 -7.86106 5.23692 -7.35553 -8.30455 5.45713 -7.28128 -8.78519 5.59005 
-7.22999 -9.28365 5.64279 -7.19457 -9.78598 5.63334 -7.16886 -10.2851 5.57994 
-7.14772 -10.7809 5.50057 -7.12692 -11.275 5.41274 -7.10316 -11.771 5.33342 
-7.07375 -12.2701 5.27973 -7.03672 -12.7712 5.26868 -6.99117 -13.2708 5.30928 
-6.93746 -13.7624 5.40094 -6.87528 -14.2423 5.53756 -6.80339 -14.7103 5.70694 
-6.7192 -15.1671 5.89877 -6.61846 -15.614 6.10566 -6.49547 -16.0507 6.32182 
-6.34272 -16.4755 6.54345 -6.15172 -16.8831 6.76784 -5.91279 -17.2645 6.99372 
-5.61963 -17.6067 7.21973 -5.27126 -17.8924 7.44429 -4.87369 -18.1092 7.66611 
-4.4432 -18.2537 7.88444 -3.99499 -18.3298 8.10012 -3.541 -18.3522 8.31651 
-3.08965 -18.3355 8.53708 -2.6438 -18.2921 8.76494 -2.20488 -18.2327 9.00226 
-1.77277 -18.1645 9.24951 -1.34686 -18.0932 9.50638 -0.925972 -18.0224 9.77153 
-0.508751 -17.9546 10.0432 -0.0935683 -17.8907 10.3188 0.321102 -17.831 10.5962 
0.736513 -17.7745 10.8731 1.1535 -17.7199 11.148 1.57207 -17.6655 11.4206 
1.99186 -17.6096 11.691 2.41204 -17.5511 11.9602 2.83179 -17.4898 12.2294 
3.25065 -17.4266 12.4996 3.66826 -17.3632 12.7717 4.08456 -17.3025 13.0464 
4.49949 -17.248 13.3244 4.91292 -17.2047 13.6068 5.32421 -17.179 13.8946 
5.73127 -17.1799 14.1894 6.13077 -17.2181 14.4924 6.51627 -17.3062 14.8041 
6.87667 -17.4595 15.1227 7.18729 -17.6995 15.4404 7.42707 -18.0328 15.7461 
7.59699 -18.4098 16.0203 7.69829 -18.8027 16.2533 7.7156 -19.3104 16.4763 
7.65666 -19.9294 16.6937 7.61306 -20.2454 16.7955 
LINES 1 129
128 0 1 2 3 4 5 6 7 8 9 10 11 12 13 14 15 16 17 18 19 20 21 22 23 24 25 26 27 28 29 30 31 32 33 34 35 36 37 38 39 40 41 42 43 44 45 46 47 48 49 50 51 52 53 54 55 56 57 58 59 60 61 62 63 64 65 66 67 68 69 70 71 72 73 74 75 76 77 78 79 80 81 82 83 84 85 86 87 88 89 90 91 92 93 94 95 96 97 98 99 100 101 102 103 104 105 106 107 108 109 110 111 112 113 114 115 116 117 118 119 120 121 122 123 124 125 126 127 

CELL_DATA 1
FIELD FieldData 2
Length 1 1 double
56.391695711 
Tortuosity 1 1 double
1.0592383412 
POINT_DATA 128
SCALARS MaximumInscribedSphereRadius float
LOOKUP_TABLE default
0.93 1.12044 1.31089 1.39691 1.47334 1.39345 1.30988 1.28229 1.2582 
1.25932 1.26251 1.29753 1.33577 1.40157 1.47078 1.41991 1.35117 1.22454 
1.08781 1.11863 1.18322 1.18787 1.17878 1.01184 0.804391 0.892757 1.06286 
1.15442 1.22345 1.18338 1.1089 1.01595 0.916588 0.900178 0.915463 0.923474 
0.928445 0.93 0.93 0.939806 0.954482 1.01853 1.10922 1.23273 1.37573 
1.52809 1.68635 1.66221 1.5243 1.41734 1.32149 1.3374 1.40752 1.44287 
1.46022 1.39886 1.29331 1.18141 1.06565 1.08411 1.19096 1.32606 1.48114 
1.53919 1.52352 1.46591 1.37417 1.30722 1.26173 1.27605 1.34506 1.47759 
1.67127 1.79162 1.83642 1.84924 1.82653 1.77017 1.67336 1.6039 1.56992 
1.55415 1.56378 1.606 1.69729 1.77281 1.82265 1.85547 1.8582 1.80042 
1.62679 1.46613 1.33221 1.24 1.24 1.24 1.24 1.24 1.24 
1.24 1.24 1.24 1.24 1.24367 1.26063 1.29369 1.39227 1.49147 
1.59352 1.69197 1.77131 1.82831 1.74727 1.66892 1.61038 1.55915 1.57351 
1.59262 1.66541 1.74005 1.84185 1.94234 2.01753 2.09005 2.04754 2.00258 
1.93129 1.86 
TEXTURE_COORDINATES TCoords 2 float
0 0 0.00787402 0 0.015748 0 0.023622 0 0.0314961 
0 0.0393701 0 0.0472441 0 0.0551181 0 0.0629921 0 
0.0708661 0 0.0787402 0 0.0866142 0 0.0944882 0 0.102362 
0 0.110236 0 0.11811 0 0.125984 0 0.133858 0 
0.141732 0 0.149606 0 0.15748 0 0.165354 0 0.173228 
0 0.181102 0 0.188976 0 0.19685 0 0.204724 0 
0.212598 0 0.220472 0 0.228346 0 0.23622 0 0.244094 
0 0.251969 0 0.259843 0 0.267717 0 0.275591 0 
0.283465 0 0.291339 0 0.299213 0 0.307087 0 0.314961 
0 0.322835 0 0.330709 0 0.338583 0 0.346457 0 
0.354331 0 0.362205 0 0.370079 0 0.377953 0 0.385827 
0 0.393701 0 0.401575 0 0.409449 0 0.417323 0 
0.425197 0 0.433071 0 0.440945 0 0.448819 0 0.456693 
0 0.464567 0 0.472441 0 0.480315 0 0.488189 0 
0.496063 0 0.503937 0 0.511811 0 0.519685 0 0.527559 
0 0.535433 0 0.543307 0 0.551181 0 0.559055 0 
0.566929 0 0.574803 0 0.582677 0 0.590551 0 0.598425 
0 0.606299 0 0.614173 0 0.622047 0 0.629921 0 
0.637795 0 0.645669 0 0.653543 0 0.661417 0 0.669291 
0 0.677165 0 0.685039 0 0.692913 0 0.700787 0 
0.708661 0 0.716535 0 0.724409 0 0.732283 0 0.740157 
0 0.748031 0 0.755906 0 0.76378 0 0.771654 0 
0.779528 0 0.787402 0 0.795276 0 0.80315 0 0.811024 
0 0.818898 0 0.826772 0 0.834646 0 0.84252 0 
0.850394 0 0.858268 0 0.866142 0 0.874016 0 0.88189 
0 0.889764 0 0.897638 0 0.905512 0 0.913386 0 
0.92126 0 0.929134 0 0.937008 0 0.944882 0 0.952756 
0 0.96063 0 0.968504 0 0.976378 0 0.984252 0 
0.992126 0 1 0 
FIELD FieldData 7
Curvature 1 128 double
0 0.027185430228 0.050531812531 0.071966629316 0.090750449042 0.10613928438 0.11733259364 0.12351114248 0.12401584139 
0.11860776354 0.10767756336 0.092263715331 0.073961979483 0.054969507765 0.039422671397 0.036441568433 0.051065223741 0.076321920218 
0.10842522817 0.14724023668 0.19347800574 0.24716572307 0.30612241745 0.36437744711 0.41182193239 0.43728410063 0.43452403761 
0.40645779908 0.36305778873 0.31529177442 0.27089010147 0.23352068775 0.20402746091 0.18177620257 0.16565583982 0.15461205864 
0.14815731227 0.14646756388 0.15063525725 0.16282715644 0.18678522385 0.22896827613 0.30053271425 0.42023906667 0.61464721048 
0.89771314672 1.1960852406 1.2990292287 1.1006751701 0.78098372316 0.51547079399 0.33794934085 0.22511423493 0.15237547961 
0.10460783914 0.075005354978 0.062663268764 0.066788005486 0.082026406179 0.10362575405 0.12998993407 0.16114469931 0.19733671563 
0.23826346466 0.28211161005 0.32489589003 0.36014591268 0.3800983252 0.37860351148 0.35447261716 0.31221943402 0.25957032293 
0.20390360962 0.15021248858 0.10094315806 0.056887299154 0.018069521765 0.016012932123 0.044956650186 0.069188266853 0.088980040079 
0.10504830238 0.1186741334 0.13146280658 0.14494613278 0.16008429501 0.17692592607 0.19447910489 0.2107721127 0.22331980251 
0.22955173595 0.22766428392 0.21728045444 0.19964969076 0.17701038081 0.15198023299 0.12677414246 0.1030971661 0.081828145904 
0.063478390935 0.048123240555 0.035640790657 0.025692001328 0.018028618051 0.012306316704 0.0085432033875 0.0074811829365 0.0096571530409 
0.014329186005 0.021184061524 0.030497090338 0.042629408527 0.058005991636 0.077000122231 0.099888661103 0.12678424858 0.15723429304 
0.19000348778 0.22223760534 0.24924910167 0.26501564596 0.26417070359 0.24456688533 0.2082908793 0.16048865092 0.10655907218 
0.050343237508 0 
Torsion 1 128 double
0 0 0.086120807841 0.11214134398 0.1334569383 0.14803549348 0.15505437473 0.15450250965 0.1465034567 
0.13005868841 0.10079085331 0.046307703542 -0.067304979093 -0.33440792518 -0.9306646916 -1.2103753993 -0.54849906224 -0.14588854944 
0.018335117017 0.086349404756 0.11358606741 0.12223516568 0.12270075382 0.12065205791 0.1196199185 0.12185488164 0.12879462804 
0.14116053154 0.15862930612 0.17973472935 0.20164794282 0.22032873573 0.23169491173 0.23336144125 0.22567586757 0.21171217712 
0.19561539308 0.18043614119 0.16666091799 0.15357893413 0.13937166993 0.12310805149 0.10543759311 0.086493157766 0.066248964434 
0.0451153276 0.024543440216 0.0047519813942 -0.0197022476 -0.056383491808 -0.10920635328 -0.18146360545 -0.28289327262 -0.43605218679 
-0.68049848393 -1.0326060865 -1.2609239499 -1.0666941174 -0.77439013116 -0.58827197643 -0.47790032662 -0.40183783266 -0.3398558903 
-0.28445238372 -0.23403269845 -0.18836460135 -0.14804098537 -0.11366692892 -0.085309088735 -0.062669972761 -0.045285801145 -0.032645186343 
-0.023963212088 -0.017883588828 -0.010898227713 0.015340131597 0.38609178596 0.39328488444 -0.036344901873 -0.092596597636 -0.12970240391 
-0.16229747454 -0.187869382 -0.20015132624 -0.19430229467 -0.17057460445 -0.13481977744 -0.094695082825 -0.055945855119 -0.021573874974 
0.0074091123861 0.031699457634 0.052554060133 0.070912440085 0.088006529819 0.10477061708 0.12183772236 0.139775235 0.15949285144 
0.18130674986 0.20602619277 0.23702777172 0.28397256651 0.37181332722 0.57643304235 0.99783858265 1.2269958596 0.72850334847 
0.32857549952 0.14962540979 0.073712056956 0.040509824128 0.024377017842 0.016003890433 0.011004566416 0.0070912542464 0.0042604541583 
0.0021031367247 0.00051469372895 -0.00061416906912 -0.0013564090507 -0.0015808716683 -0.0016586385555 -0.001633825574 -0.0013035427768 -0.00099467436522 
0 0 
Abscissas 1 128 double
0 0.50243668128 1.0048733626 1.5073121056 2.0097510383 2.5121869975 3.0146228867 3.5170577653 4.0194925805 
4.5219321287 5.0243720637 5.526808551 6.0292446893 6.5316803834 7.0341160226 7.5365540454 8.0389924229 8.5414280736 
9.0438632482 9.5462990401 10.048734956 10.551173407 11.05361244 11.556064878 12.058520758 12.560954438 13.063381985 
13.565813414 14.068245957 14.57068355 15.073122736 15.57556063 16.077998075 16.580429956 17.082859711 17.585307025 
18.087761679 18.590197905 19.092625741 19.595057924 20.097492265 20.599926534 21.102360763 21.604798019 22.107237073 
22.609674999 23.112112214 23.614548632 24.116984553 24.619419524 25.121854155 25.624288926 26.126723764 26.629161337 
27.131600325 27.634038263 28.13647561 28.638912086 29.141348029 29.6437837 30.14621919 30.648654713 31.151090261 
31.653527572 32.155966224 32.658403583 33.160839888 33.663274494 34.165707627 34.668143669 35.17058237 35.673021063 
36.175459748 36.677909467 37.180370555 37.682815588 38.185242788 38.687668923 39.19009378 39.692528723 40.194976749 
40.69740554 41.199807537 41.702227207 42.204673477 42.707120934 43.209570325 43.712013256 44.214444762 44.716874642 
45.219301408 45.721736045 46.224186899 46.726633887 47.22907233 47.731509679 48.233944396 48.736379632 49.23881624 
49.741252542 50.243687952 50.746122047 51.248551885 51.750985709 52.253433944 52.755878151 53.258305965 53.760738164 
54.263190625 54.765641623 55.268084858 55.770524952 56.272945638 56.775367046 57.277793763 57.780222224 58.282666287 
58.785108487 59.287529672 59.789952278 60.292395856 60.794839685 61.297288348 61.799736355 62.302156052 62.804580575 
63.307056963 63.809533351 
ParallelTransportNormals 3 128 double
0.59519895402 0 0.80357837523 0.50337057422 0.01914136532 0.85654559046 0.41154219441 0.038282730639 0.9095128057 
0.3570784012 0.046762939291 0.9313845583 0.30604945491 0.054263090501 0.9503977712 0.26797867982 0.055345301074 0.96100763799 
0.2302133743 0.056276218261 0.97141940842 0.21700904637 0.054371880556 0.97457749299 0.2053448666 0.052289752184 0.97728071981 
0.21893245645 0.058672032792 0.97381335614 0.23458412776 0.065746194796 0.96984160797 0.26171797599 0.084258203434 0.9607886119 
0.29001416733 0.10392806762 0.95122124008 0.3129653325 0.12112102175 0.94154235521 0.33525471175 0.13800730119 0.93184966353 
0.34268836094 0.14318524196 0.92844899464 0.34791076938 0.14662042383 0.92598487865 0.33092644751 0.13789408062 0.9331905466 
0.31006472485 0.12704427725 0.94208460485 0.25151327068 0.10251060242 0.95958867703 0.18536832995 0.075219988496 0.97882743988 
0.04813723673 0.024140200246 0.98532462342 -0.10540449367 -0.03239798711 0.98889826602 -0.31151038791 -0.11663508668 0.90796750891 
-0.53110831497 -0.20798187098 0.80534638233 -0.67464107885 -0.28679463689 0.64144801198 -0.79715711319 -0.36214426589 0.46061879965 
-0.84513472134 -0.40733070735 0.3181180417 -0.87173380975 -0.44386598277 0.18661034681 -0.8758744545 -0.46633561213 0.091640115857 
-0.87293141547 -0.48436875469 0.0081942738749 -0.86428671288 -0.49756292641 -0.051700453437 -0.85366219382 -0.50907683867 -0.10341741226 
-0.84215136501 -0.51948225221 -0.14056911769 -0.8303018958 -0.5294641316 -0.17215574474 -0.81784783306 -0.53978945144 -0.19753632036 
-0.80514103604 -0.55025833744 -0.22032262101 -0.79241198016 -0.56055549354 -0.23945259621 -0.77967278926 -0.57077445653 -0.25691775126 
-0.76773978925 -0.58008764757 -0.27152551007 -0.75620724611 -0.58895091713 -0.28471392272 -0.74416985764 -0.59801306519 -0.297077331 
-0.73186000877 -0.60718254617 -0.30899549196 -0.71164009815 -0.62246227023 -0.32405155742 -0.68672372295 -0.64136984718 -0.34097070029 
-0.61951608671 -0.70201838499 -0.32980660678 -0.52573114936 -0.78889839611 -0.30099402963 -0.48198399376 -0.83819072544 -0.24602405732 
-0.46944883327 -0.8640370406 -0.17473792427 -0.46617410756 -0.87088789145 -0.15567884566 -0.46622941236 -0.87090801813 -0.15540049263 
-0.4673630967 -0.87097601918 -0.15146130436 -0.46902000671 -0.87106724868 -0.14574589269 -0.47583402962 -0.8700832298 -0.12557667851 
-0.48531779437 -0.86854257474 -0.097924998439 -0.50306428363 -0.86034283507 -0.043354458207 -0.52544957295 -0.84840459945 0.026328677121 
-0.54388572072 -0.82714913341 0.10933484826 -0.55991160384 -0.80020711729 0.20047241757 -0.56494522684 -0.78200701596 0.26045601929 
-0.56274032761 -0.76956356012 0.29992439626 -0.56744505271 -0.7681445352 0.29441560354 -0.57703766686 -0.77452422589 0.25708982567 
-0.60083265402 -0.77169508422 0.18727398797 -0.63541650304 -0.76187043411 0.092777009534 -0.67831446064 -0.72272225064 -0.017053987718 
-0.72797650764 -0.65971739029 -0.13936024597 -0.77328284831 -0.56632909682 -0.24757342015 -0.81481816924 -0.44663587897 -0.34358529011 
-0.84517628241 -0.32560747498 -0.40827779747 -0.86531640035 -0.20335846869 -0.4443387266 -0.87807685661 -0.1068499516 -0.46215748149 
-0.88373057944 -0.035129941603 -0.46240872778 -0.88706242637 0.010944970721 -0.46119823116 -0.88800228519 0.030600396331 -0.45848185229 
-0.88791294802 0.029632173292 -0.45859148697 -0.88668030678 0.0057537354292 -0.46184045838 -0.88403061994 -0.033177289692 -0.46375110542 
-0.87967832485 -0.090194295249 -0.46405372935 -0.8743386731 -0.14816076237 -0.45940396583 -0.86771831772 -0.20735877926 -0.44833044387 
-0.86081037227 -0.26090852964 -0.4351148377 -0.85350182298 -0.30659042349 -0.418915376 -0.84479274358 -0.35203553432 -0.40090932053 
-0.83397560524 -0.39712424256 -0.38018400463 -0.81802933681 -0.44882603062 -0.35483669947 -0.79372008089 -0.51131036906 -0.32195329414 
-0.75648316314 -0.58306584201 -0.2814428345 -0.69638715793 -0.67121481884 -0.22744598388 -0.61824912081 -0.75848393038 -0.16747068408 
-0.50557438537 -0.84406877248 -0.096051224497 -0.38965807025 -0.91438735213 -0.027399868544 -0.26706237056 -0.95324928152 0.03554771623 
-0.15877853864 -0.98118417692 0.090529569855 -0.082137396183 -0.98496004928 0.12789966509 -0.018859404594 -0.98677149004 0.15905511004 
0.012261322178 -0.98385569632 0.17525553751 0.03636337498 -0.98150637796 0.18789052792 0.041919776017 -0.98065387434 0.19110445751 
0.044671951612 -0.98024593948 0.19262242424 0.039244660654 -0.98113473887 0.1891935449 0.033456254243 -0.98206162466 0.18548827983 
0.026498754325 -0.98311181328 0.18088822956 0.020384814112 -0.98402486271 0.17684509994 0.017321627081 -0.98444194513 0.17481608671 
0.015338801416 -0.98471345558 0.17349673835 0.017751452267 -0.98439270293 0.17506467876 0.020493115464 -0.98402170214 0.17684115041 
0.02475523434 -0.98341849104 0.17958130175 0.028319882484 -0.98291414542 0.18187292033 0.028184153705 -0.98293432297 0.18178488307 
0.026559058416 -0.98315561118 0.18070641908 0.015727990897 -0.98461999114 0.17350599596 0.0026485453729 -0.98618781954 0.16471313592 
-0.026946667285 -0.9885155426 0.14422281349 -0.059661908528 -0.99026929938 0.12125814733 -0.12031437925 -0.98688367134 0.076137815975 
-0.18440055547 -0.98089651265 0.027540851875 -0.28721614604 -0.94556619724 -0.060269711185 -0.39067382935 -0.90531439861 -0.15051113739 
-0.50359884125 -0.79249785061 -0.27659439568 -0.61330161326 -0.67834159526 -0.40095620295 -0.66099591155 -0.53840414095 -0.49219057305 
-0.70765147059 -0.39880811867 -0.58256434181 -0.70952499392 -0.27393188452 -0.63583594075 -0.71123901209 -0.15968717253 -0.68457218364 
-0.71123901209 -0.15968717253 -0.68457218364 -0.71123901209 -0.15968717253 -0.68457218364 
FrenetTangent 3 128 double
-0.90433090355 0.090264110784 0.41717862743 -0.90433090355 0.090264110784 0.41717862743 -0.90962418881 0.074149919824 0.40876108489 
-0.91691191371 0.048212072245 0.39616680652 -0.92461359659 0.012888864895 0.38068829003 -0.93095100339 -0.030913356788 0.36383319482 
-0.93425556341 -0.081655781644 0.34712947953 -0.93328874287 -0.13710814777 0.33192390429 -0.92752171652 -0.19445877741 0.31920095437 
-0.9172989113 -0.25060963425 0.30944711753 -0.90381474914 -0.30259847377 0.30257736681 -0.88888719758 -0.34802210666 0.29792643935 
-0.87458985009 -0.38533396514 0.29429632927 -0.86286226889 -0.41394445321 0.29003223025 -0.85519789086 -0.43414659984 0.28311357673 
-0.85245436775 -0.44693266441 0.2712429619 -0.8547727833 -0.4537598673 0.25192354348 -0.86154447223 -0.45631167331 0.22253264743 
-0.87137080931 -0.45625885682 0.18039059911 -0.88196108836 -0.45502674951 0.12286291483 -0.88995041006 -0.45356796117 0.047585420369 
-0.89069769568 -0.45215517811 -0.047045826663 -0.87828052369 -0.45023730485 -0.16096487516 -0.84611015947 -0.446474841 -0.29113195358 
-0.78861448075 -0.4391433711 -0.4303955162 -0.703803612 -0.42697418708 -0.56776185087 -0.59521552902 -0.41007372312 -0.69105572541 
-0.47130260932 -0.39021936264 -0.79095050381 -0.34223910762 -0.37021848724 -0.86360330298 -0.21652718046 -0.35285083949 -0.91028142088 
-0.099428185874 -0.34013833946 -0.93510424332 0.0067732513319 -0.33315854012 -0.94284649345 0.1017419236 -0.33218747756 -0.93771000887 
0.18613997585 -0.33693978655 -0.92294284202 0.26102137462 -0.34679837113 -0.90088774649 0.32753434477 -0.36100921418 -0.87315153339 
0.38684073808 -0.37885841289 -0.84072620177 0.44012210794 -0.39983659333 -0.80400449547 0.4885929277 -0.42376119123 -0.76269483007 
0.53348766371 -0.4508372772 -0.71563724201 0.57595859072 -0.48166033404 -0.66051118415 0.61686528765 -0.51711172282 -0.5933571294 
0.6562911324 -0.55804380645 -0.50780809329 0.69239897183 -0.60442722191 -0.39401953913 0.71892096689 -0.65308550501 -0.23797471824 
0.72074337228 -0.69276140448 -0.024710883689 0.67194874879 -0.69868900301 0.24559836333 0.55316289756 -0.64275275156 0.52998085733 
0.38588245145 -0.52855583764 0.75612397142 0.2201859995 -0.39494940669 0.89192661793 0.086882842422 -0.27393118889 0.95781682771 
-0.0096010490445 -0.17507039406 0.98450910457 -0.074941888973 -0.09651778828 0.9925059344 -0.11548867683 -0.034098540625 0.99272335273 
-0.13596318947 0.015507164467 0.99059251913 -0.13962300767 0.054145545993 0.9887232553 -0.12886425269 0.082311021941 0.98824030481 
-0.10575442316 0.099426898018 0.98940906299 -0.072407348505 0.10416467878 0.99192081114 -0.031165163742 0.094772066858 0.99501104914 
0.015369672878 0.069392489133 0.99747102996 0.064405245686 0.02636889537 0.99757538346 0.11305517365 -0.035451441719 0.9929560529 
0.15842828964 -0.11634523406 0.98049184777 0.1976866703 -0.21518696914 0.95635482364 0.22813473428 -0.32877248761 0.91644050238 
0.24750885056 -0.45124589111 0.85738936 0.25450368526 -0.57421260449 0.77814379072 0.24937318106 -0.68813463462 0.68138369603 
0.23420157084 -0.78485067991 0.57372383118 0.21247224289 -0.85991023557 0.46412275613 0.18809249176 -0.91326100077 0.36135240282 
0.1644536524 -0.9481280656 0.27204442179 0.14396834049 -0.96914608883 0.2000724255 0.12807772511 -0.98081577386 0.14695752475 
0.11750349668 -0.98666768388 0.11260466182 0.11254334773 -0.98900650127 0.095917335891 0.11329696864 -0.9889927 0.095169513178 
0.11981160631 -0.98688618366 0.10817041874 0.13216903482 -0.98235204673 0.13234727998 0.15052399622 -0.97476354762 0.16485919082 
0.17510850769 -0.963440972 0.20277698094 0.20621406869 -0.947768946 0.24333060407 0.24414006867 -0.92717626877 0.28414748547 
0.2890938357 -0.90102283149 0.32339234884 0.34103745561 -0.86847732666 0.35977852486 0.39948001454 -0.8284814484 0.39247191955 
0.46325203773 -0.77987639886 0.42093984373 0.53032695744 -0.72172685714 0.4448186843 0.59782007232 -0.65377664476 0.46388280836 
0.66226881301 -0.57689977714 0.47810737963 0.72020169292 -0.49334297935 0.48777271985 0.76885318154 -0.4065363557 0.49355139219 
0.8067283738 -0.32047484394 0.49647276392 0.83376314736 -0.23895210293 0.49773577992 0.85106449603 -0.16494405197 0.49848037405 
0.86043163035 -0.10032333609 0.49959247166 0.86388146408 -0.045874217469 0.50160180641 0.86330278269 -0.0015137936953 0.50468407328 
0.86027465478 0.033440709127 0.50873297251 0.85601223702 0.060051803852 0.5134557731 0.8513825598 0.079563354757 0.51847604521 
0.84695152294 0.093240619141 0.52343032462 0.84303944459 0.10227421789 0.5280383312 0.83977446303 0.10768268641 0.53214968787 
0.83714780394 0.11021860257 0.53575686091 0.83505408571 0.11034156062 0.53898925216 0.83332603453 0.10816668066 0.54209564595 
0.83175892017 0.10346410945 0.5454101913 0.8301202137 0.095675009513 0.5493147762 0.82813964239 0.08392428496 0.55420343475 
0.82547756697 0.067088178335 0.56043372736 0.82166939776 0.043856349432 0.56827460034 0.8160404625 0.012799448932 0.57785304159 
0.80761918858 -0.027525298985 0.58906163018 0.79505062847 -0.078422838169 0.6014518739 0.7765506388 -0.14078620169 0.61412405163 
0.74999243242 -0.21471312793 0.62562738431 0.71322508098 -0.29898276174 0.63397104985 0.66474422547 -0.39051402813 0.63687825252 
0.60465624158 -0.48421403123 0.63239829338 0.53554553233 -0.57363761191 0.6197829241 0.46258047137 -0.65254350947 0.60017187185 
0.39250004173 -0.71658729612 0.57658161978 0.33196139839 -0.76414554502 0.55306709901 0.28620183107 -0.79585219332 0.53358017044 
0.25856271014 -0.81335809134 0.52114675493 0.25856271014 -0.81335809134 0.52114675493 
FrenetNormal 3 128 double
-0.29444800087 -0.83951166652 -0.4566404894 -0.29444800087 -0.83951166652 -0.4566404894 -0.26747658372 -0.85739785038 -0.43968762016 
-0.22503356808 -0.88227526968 -0.41346129414 -0.16861883677 -0.91001706802 -0.37873027843 -0.1005427073 -0.93619069391 -0.33680580257 
-0.024029916886 -0.9568025949 -0.28974360645 0.056983906056 -0.96908057308 -0.24007431625 0.13815438986 -0.97189042616 -0.19063673333 
0.21508179585 -0.96582884973 -0.14461830495 0.28343720676 -0.95306049827 -0.10648491192 0.3386179819 -0.93712986756 -0.084412520742 
0.37392605978 -0.92242143089 -0.096529817408 0.37263401757 -0.90867578223 -0.18828757725 0.27700781988 -0.8445265023 -0.45830301618 
0.009079620266 -0.53140382882 -0.84706996831 -0.19354269034 -0.17170015117 -0.96595045686 -0.23924050151 -0.021695907523 -0.97071791476 
-0.21302853915 0.020637988133 -0.97682798637 -0.1502510626 0.024359685349 -0.98834772419 -0.062708677183 0.018351993916 -0.99786312996 
0.044942418026 0.015398692787 -0.99887089222 0.1697143649 0.02118070155 -0.98526565566 0.30758204337 0.037089465441 -0.95079843193 
0.45165008992 0.061283098011 -0.89008796092 0.59203459845 0.089185450195 -0.80096253951 0.71806178529 0.11459927507 -0.68647962727 
0.82183175705 0.13118064526 -0.55442240342 0.90029535499 0.13388832372 -0.414176521 0.95441548171 0.11970465978 -0.27342619241 
0.98671222135 0.087660379577 -0.13680149888 0.99921692839 0.039011317591 -0.0066065963748 0.99302108842 -0.022603527319 0.1157505875 
0.96913529418 -0.091578747289 0.2288888696 0.92952377951 -0.16153281261 0.33150066935 0.87728605375 -0.22695300592 0.4229202206 
0.81586576932 -0.28430746519 0.50351992185 0.74793220681 -0.33223067813 0.57464788395 0.67517953459 -0.37003744844 0.63812607126 
0.59840845825 -0.39676375845 0.6960501685 0.51750616568 -0.41063971288 0.75070792902 0.43145186904 -0.40835128154 0.804424338 
0.33692620533 -0.38544461899 0.85901872963 0.22739808853 -0.33546031917 0.91419717982 0.093160172988 -0.24874461277 0.9640784718 
-0.075575297691 -0.11396297647 0.99060628626 -0.27586113752 0.071630670143 0.95852474141 -0.47319305971 0.28116640882 0.83488548843 
-0.61601905198 0.46248548467 0.63767366581 -0.68543156518 0.58793684116 0.42955074235 -0.69697319918 0.67025943741 0.2549130169 
-0.66705519552 0.73459548548 0.12412428783 -0.59778778646 0.80098492179 0.032755418429 -0.47347920812 0.88045466259 -0.024840020235 
-0.25446367953 0.96578658276 -0.050045103203 0.11783674131 0.99231701736 -0.037701982094 0.60428023659 0.79667471988 0.012441316847 
0.9285340266 0.36595318196 0.062472634403 0.99574563889 -0.04927718211 0.077861299486 0.9326575359 -0.35521153968 0.063045085442 
0.81927584547 -0.57275306497 0.027221601711 0.68743038818 -0.72581306586 -0.025196325679 0.55222937818 -0.82854959442 -0.092456927607 
0.42219666803 -0.88968940832 -0.17378932711 0.30145811159 -0.91498412396 -0.26819220693 0.19133592885 -0.9077685873 -0.37329178165 
0.092123161671 -0.86995359252 -0.48445234023 0.0039757159843 -0.80401105761 -0.59460105358 -0.072402820394 -0.714891695 -0.69547659631 
-0.13610549215 -0.610794667 -0.78000331395 -0.1868361237 -0.50195504627 -0.84447225792 -0.22541949628 -0.39823981325 -0.88915190032 
-0.25374583347 -0.30718216166 -0.91719800019 -0.27396878485 -0.2333109018 -0.93300971486 -0.2878023756 -0.1785584351 -0.94089674133 
-0.29303321636 -0.14279029578 -0.94537953518 -0.24742255441 -0.12138305464 -0.96127427596 0.46958941115 0.13771418686 0.8720783151 
0.43344423076 0.15001983628 0.88860573234 0.4581737549 0.17894439088 0.87066395084 0.49914999909 0.21887836417 0.83841609008 
0.55065844591 0.26657151181 0.79102143147 0.60785768299 0.31895117535 0.72717204634 0.66401254418 0.37338026249 0.64782290848 
0.71098795173 0.42829790552 0.55772487538 0.74192329666 0.48369200109 0.46431871593 0.75289703293 0.54075054128 0.37514651793 
0.74320721289 0.60060166193 0.2948231375 0.71384031091 0.66318858536 0.22497313343 0.6666034357 0.72684925331 0.16531794358 
0.6039139433 0.78869132528 0.11512576827 0.5290256873 0.84538001556 0.073921928183 0.44572291414 0.89417650778 0.042183607497 
0.35809756461 0.93345537369 0.020668806021 0.2698366424 0.96285169121 0.010237536442 0.18360483474 0.98292962631 0.011773460959 
0.10098017612 0.99455380335 0.025801865779 0.022475189811 0.99836282198 0.052597923278 -0.052227223231 0.99435862176 0.092321441128 
-0.12388788414 0.98164950871 0.14496908017 -0.19328478804 0.95837282007 0.21014882456 -0.26117772129 0.92149254852 0.28746770414 
-0.32915799784 0.86509668346 0.37850064824 -0.39901843443 0.77723189748 0.48651296645 -0.47514837884 0.62000579569 0.6243611386 
-0.5424577398 0.29294277481 0.7873526092 -0.4970494643 -0.26867352958 0.82507961103 -0.32927646445 -0.69056848535 0.64396597504 
-0.2155070105 -0.84524624081 0.48899439754 -0.16473013956 -0.89911200168 0.40553864126 -0.14762201731 -0.92116619712 0.3600841253 
-0.1480579369 -0.93240570456 0.32969447891 -0.16008129883 -0.93914558691 0.30394003413 -0.18186268539 -0.94329103669 0.27771925351 
-0.21296892434 -0.94510721736 0.24782369732 -0.25372814363 -0.94367776435 0.21235419989 -0.30439305797 -0.93724677114 0.17003927851 
-0.36419332679 -0.92361075349 0.11960935062 -0.43150203475 -0.90004862689 0.060979203256 -0.50299665986 -0.86427422876 -0.00494142389 
-0.57408654292 -0.81531838471 -0.075369574693 -0.63941387774 -0.75484688635 -0.14613716542 -0.69440203561 -0.68754633119 -0.21233430105 
-0.73671158082 -0.62024737565 -0.26934966065 -0.76624623465 -0.56039769169 -0.31435829087 -0.78474864078 -0.51421767303 -0.34604877623 
-0.79447664173 -0.48594010298 -0.36423767249 -0.79447664173 -0.48594010298 -0.36423767249 
FrenetBinormal 3 128 double
0.30900807703 -0.53579151923 0.7857744309 0.30900807703 -0.53579151923 0.7857744309 0.31786807372 -0.50928451336 0.79974319138 
0.32959435028 -0.46825841648 0.81981804058 0.34155143813 -0.41437038151 0.84358745963 0.35102904907 -0.35013047427 0.86843955328 
0.35579362745 -0.27903606883 0.89193596573 0.35457715222 -0.20514433623 0.91224494761 0.34729933767 -0.13272069704 0.92831481009 
0.33511569409 -0.066101771927 0.93985532255 0.3205967078 -0.010480950279 0.94715780133 0.30857318795 0.025850040645 0.95084928515 
0.30866145845 0.025621068277 0.95082683225 0.3414858619 -0.054390370924 0.93831183179 0.43806761487 -0.31351509814 0.84249928667 
0.52272278638 -0.71962571118 0.45705549379 0.48156486162 -0.8744261209 0.058942710622 0.44777796374 -0.88955547573 -0.090476244373 
0.44196352133 -0.88960773885 -0.11517949816 0.44673175038 -0.89014451802 -0.089852547228 0.45172545804 -0.89103272045 -0.044775011369 
0.45236909042 -0.89180635519 0.0066053668455 0.44701270235 -0.89265768758 0.057809140599 0.43530550725 -0.89402717403 0.10594587039 