# vtk DataFile Version 4.2
vtk output
ASCII
DATASET POLYDATA
POINTS 128 float
0 0 0 -0.242185 0.0567295 0.229442 -0.731051 0.178074 0.655467 
-1.17416 0.30245 0.957846 -1.57644 0.422465 1.15609 -2.01158 0.543767 1.34724 
-2.47443 0.659955 1.53377 -2.94216 0.761959 1.6967 -3.41345 0.844185 1.84166 
-3.89211 0.901506 1.98024 -4.37573 0.925971 2.11731 -4.85947 0.908117 2.25577 
-5.3358 0.835128 2.39923 -5.79556 0.694599 2.5504 -6.22537 0.482654 2.70564 
-6.61255 0.20054 2.85886 -6.9572 -0.137882 3.00247 -7.26534 -0.514714 3.12862 
-7.55076 -0.915413 3.23135 -7.82953 -1.32718 3.30518 -8.11322 -1.74029 3.34305 
-8.41036 -2.1463 3.337 -8.72124 -2.53731 3.27705 -9.04116 -2.90606 3.15273 
-9.35443 -3.24834 2.95641 -9.63971 -3.56203 2.68313 -9.86972 -3.85086 2.33932 
-10.0158 -4.12127 1.93828 -10.061 -4.3799 1.50666 -9.99639 -4.63278 1.076 
-9.83619 -4.88001 0.665707 -9.60565 -5.1188 0.287247 -9.3283 -5.3467 -0.0647739 
-9.02612 -5.5616 -0.404163 -8.71548 -5.76272 -0.743682 -8.40903 -5.95033 -1.09462 
-8.11288 -6.12775 -1.45966 -7.82888 -6.30032 -1.83627 -7.55327 -6.4765 -2.21744 
-7.27905 -6.66655 -2.5934 -6.99997 -6.88058 -2.9523 -6.71047 -7.12868 -3.28031 
-6.40704 -7.42186 -3.55509 -6.08867 -7.76978 -3.74773 -5.76916 -8.15752 -3.8166 
-5.47213 -8.55232 -3.71564 -5.21778 -8.90881 -3.45189 -5.02229 -9.17629 -3.06897 
-4.88279 -9.34194 -2.61109 -4.78408 -9.41853 -2.12082 -4.71708 -9.41804 -1.62193 
-4.67733 -9.35162 -1.12495 -4.66409 -9.23108 -0.636584 -4.67946 -9.0688 -0.160713 
-4.72802 -8.87817 0.301896 -4.81622 -8.67342 0.752731 -4.95059 -8.47031 1.1927 
-5.13738 -8.28583 1.62209 -5.37735 -8.13728 2.0391 -5.66644 -8.04195 2.44018 
-5.99468 -8.01236 2.82149 -6.34711 -8.05674 3.17896 -6.70765 -8.1787 3.50939 
-7.05943 -8.37776 3.81041 -7.38607 -8.64994 4.08113 -7.67179 -8.98802 4.32207 
-7.90289 -9.38178 4.53561 -8.06786 -9.81815 4.72589 -8.15963 -10.2825 4.89862 
-8.17562 -10.759 5.06106 -8.11732 -11.2328 5.22146 -7.99025 -11.6905 5.38906 
-7.80115 -12.1192 5.57327 -7.55792 -12.507 5.78355 -7.27012 -12.8423 6.02599 
-6.94911 -13.1137 6.30275 -6.60552 -13.3168 6.61011 -6.24891 -13.4544 6.93781 
-5.88506 -13.5334 7.2759 -5.51527 -13.5646 7.61534 -5.13924 -13.5578 7.94868 
-4.75501 -13.521 8.27049 -4.36107 -13.4614 8.57666 -3.95665 -13.3846 8.86474 
-3.54187 -13.2957 9.13394 -3.11804 -13.1991 9.38575 -2.6868 -13.0993 9.62319 
-2.25008 -13.0012 9.85126 -1.80945 -12.9108 10.0748 -1.3659 -12.8348 10.2981 
-0.92041 -12.7806 10.5242 -0.474163 -12.7561 10.7539 -0.029054 -12.7679 10.9873 
0.41178 -12.8205 11.223 0.844788 -12.9165 11.4598 1.26589 -13.0547 11.6973 
1.67062 -13.2334 11.9361 2.05394 -13.4499 12.1788 2.40975 -13.7023 12.4285 
2.73001 -13.9905 12.6892 3.00023 -14.3152 12.9643 3.19288 -14.6788 13.2557 
3.2822 -15.0757 13.5586 3.24998 -15.4832 13.8528 3.09524 -15.8808 14.121 
2.85313 -16.2585 14.3561 2.55855 -16.6135 14.5562 2.23456 -16.9566 14.7283 
1.90031 -17.2997 14.8796 1.56936 -17.6531 15.014 1.25351 -18.0254 15.1339 
0.962062 -18.4208 15.2394 0.700763 -18.8406 15.3294 0.466825 -19.2799 15.4009 
0.253791 -19.7322 15.4505 0.0488063 -20.1903 15.4749 -0.160272 -20.6473 15.471 
-0.38005 -21.0979 15.4367 -0.614384 -21.5379 15.3711 -0.861697 -21.9646 15.2754 
-1.11639 -22.3784 15.1507 -1.36294 -22.7891 14.9954 -1.58596 -23.2042 14.8096 
-1.77781 -23.6147 14.6022 -1.90808 -24.0241 14.3774 -1.85441 -24.4948 14.1163 
-1.57483 -25.0175 13.8355 -1.39186 -25.277 13.6983 
LINES 1 129
128 0 1 2 3 4 5 6 7 8 9 10 11 12 13 14 15 16 17 18 19 20 21 22 23 24 25 26 27 28 29 30 31 32 33 34 35 36 37 38 39 40 41 42 43 44 45 46 47 48 49 50 51 52 53 54 55 56 57 58 59 60 61 62 63 64 65 66 67 68 69 70 71 72 73 74 75 76 77 78 79 80 81 82 83 84 85 86 87 88 89 90 91 92 93 94 95 96 97 98 99 100 101 102 103 104 105 106 107 108 109 110 111 112 113 114 115 116 117 118 119 120 121 122 123 124 125 126 127 

CELL_DATA 1
FIELD FieldData 2
Length 1 1 double
55.887507678 
Tortuosity 1 1 double
0.94163025888 
POINT_DATA 128
SCALARS MaximumInscribedSphereRadius float
LOOKUP_TABLE default
0.9796 1.08765 1.19571 1.16119 1.11927 1.0283 0.935257 0.93 0.93 
1.0033 1.08262 1.16148 1.24028 1.25973 1.2717 1.2624 1.25002 1.24475 
1.24066 1.24 1.24 1.24118 1.24261 1.26213 1.28607 1.25996 1.22047 
1.27388 1.35391 1.46721 1.59058 1.48017 1.29419 1.24342 1.24075 1.17087 
1.07455 1.04523 1.04487 1.13428 1.2663 1.46143 1.68916 1.79494 1.8335 
1.78417 1.68603 1.67522 1.71131 1.73184 1.74373 1.69894 1.62067 1.6615 
1.77798 1.77657 1.69433 1.66694 1.68 1.73894 1.83395 1.87338 1.86652 
1.86243 1.86079 1.88692 1.93893 2.00282 2.07841 2.07696 1.99504 1.86738 
1.6889 1.53882 1.42235 1.40482 1.51138 1.65848 1.8596 1.99176 2.02506 
2.01283 1.93 1.87471 1.86578 1.86 1.86 1.861 1.86401 1.86816 
1.87478 1.87798 1.873 1.8829 1.93193 1.99064 2.0773 2.14608 2.15792 
2.15205 2.0838 2.01258 1.92994 1.86292 1.85804 1.85116 1.83576 1.85104 
2.01428 2.17958 2.35639 2.51177 2.52776 2.53564 2.481 2.43024 2.41635 
2.40541 2.43012 2.4474 2.34273 2.2407 2.20496 2.17 2.17 2.17 
2.17 2.17 
TEXTURE_COORDINATES TCoords 2 float
0 0 0.00787402 0 0.015748 0 0.023622 0 0.0314961 
0 0.0393701 0 0.0472441 0 0.0551181 0 0.0629921 0 
0.0708661 0 0.0787402 0 0.0866142 0 0.0944882 0 0.102362 
0 0.110236 0 0.11811 0 0.125984 0 0.133858 0 
0.141732 0 0.149606 0 0.15748 0 0.165354 0 0.173228 
0 0.181102 0 0.188976 0 0.19685 0 0.204724 0 
0.212598 0 0.220472 0 0.228346 0 0.23622 0 0.244094 
0 0.251969 0 0.259843 0 0.267717 0 0.275591 0 
0.283465 0 0.291339 0 0.299213 0 0.307087 0 0.314961 
0 0.322835 0 0.330709 0 0.338583 0 0.346457 0 
0.354331 0 0.362205 0 0.370079 0 0.377953 0 0.385827 
0 0.393701 0 0.401575 0 0.409449 0 0.417323 0 
0.425197 0 0.433071 0 0.440945 0 0.448819 0 0.456693 
0 0.464567 0 0.472441 0 0.480315 0 0.488189 0 
0.496063 0 0.503937 0 0.511811 0 0.519685 0 0.527559 
0 0.535433 0 0.543307 0 0.551181 0 0.559055 0 
0.566929 0 0.574803 0 0.582677 0 0.590551 0 0.598425 
0 0.606299 0 0.614173 0 0.622047 0 0.629921 0 
0.637795 0 0.645669 0 0.653543 0 0.661417 0 0.669291 
0 0.677165 0 0.685039 0 0.692913 0 0.700787 0 
0.708661 0 0.716535 0 0.724409 0 0.732283 0 0.740157 
0 0.748031 0 0.755906 0 0.76378 0 0.771654 0 
0.779528 0 0.787402 0 0.795276 0 0.80315 0 0.811024 
0 0.818898 0 0.826772 0 0.834646 0 0.84252 0 
0.850394 0 0.858268 0 0.866142 0 0.874016 0 0.88189 
0 0.889764 0 0.897638 0 0.905512 0 0.913386 0 
0.92126 0 0.929134 0 0.937008 0 0.944882 0 0.952756 
0 0.96063 0 0.968504 0 0.976378 0 0.984252 0 
0.992126 0 1 0 
FIELD FieldData 7
Curvature 1 128 double
0 0.019721203137 0.036366458809 0.051496165514 0.065350502441 0.078811756803 0.093084674925 0.10913526596 0.12718595717 
0.14647548716 0.16535620987 0.18161683526 0.1930725391 0.19835789037 0.19763826787 0.19289843856 0.18752633582 0.18531185414 
0.18916491313 0.20019701714 0.21773190226 0.24001376824 0.2648435853 0.28966198523 0.31142335192 0.32644808336 0.33100604148 
0.32258183117 0.30108265976 0.26918176911 0.23142614073 0.19246218967 0.1561765084 0.12553806522 0.10323646235 0.092524504076 
0.096291588132 0.1148359557 0.14708303918 0.19345645972 0.25663702066 0.3405049429 0.44740601898 0.57199527277 0.69249484724 
0.77009731066 0.77175743901 0.70053314709 0.59137128764 0.47959932071 0.38349994908 0.30752886905 0.25031551779 0.20971127156 
0.18448752304 0.17406296628 0.17708315043 0.19062302635 0.2108401022 0.23394133579 0.25658956399 0.27609501201 0.29051620441 
0.29892490922 0.30142046229 0.29917016586 0.29396153167 0.28787245231 0.28271656479 0.27969199794 0.27892752749 0.27948163672 
0.27955243783 0.27692779118 0.26978460972 0.25708542067 0.23902829492 0.21669856373 0.19173217405 0.16571483597 0.1398842629 
0.11504467888 0.091644641473 0.069952563623 0.050609063074 0.035758612444 0.031138673403 0.03985129911 0.055693038274 0.073996845555 
0.093128294481 0.11263474506 0.13254872059 0.15328153273 0.17560032132 0.2003938666 0.22840625593 0.25967519082 0.29278869401 
0.32417796574 0.34792723594 0.35733523453 0.34788227649 0.32010570639 0.27949797673 0.23384169287 0.19005960622 0.15297513675 
0.12526884946 0.1078388852 0.099577609022 0.097721637468 0.099344055347 0.10240806297 0.10603811162 0.11006869233 0.11462611789 
0.12002679502 0.12651955742 0.13376710156 0.14047360265 0.14410639468 0.14138545183 0.12947047083 0.1071378034 0.075367762363 
0.036912096132 0 
Torsion 1 128 double
0 0 0.14137707805 0.19320896483 0.23950277625 0.26895821392 0.27193776223 0.24689407661 0.20140234637 
0.14602561574 0.088221615627 0.03078826975 -0.026993614448 -0.087411639352 -0.15214677788 -0.21904621765 -0.2774489292 -0.3071384568 
-0.29010163072 -0.22783329817 -0.14074855507 -0.051099632698 0.027457518003 0.088851323977 0.13101884567 0.15447613056 0.16224101723 
0.15892586997 0.14995698403 0.14157086099 0.14112724021 0.15874433876 0.20931104035 0.31108814291 0.46457660469 0.58661006862 
0.53505870083 0.35241772156 0.18061972725 0.064340709059 -0.0077742206374 -0.051991842589 -0.078123545224 -0.091121779878 -0.093449554881 
-0.086418276129 -0.069849373002 -0.041346997288 0.0021256366128 0.062339739865 0.13990384735 0.23559688505 0.34954813982 0.47404011158 
0.58268827355 0.63272614089 0.60634478998 0.53572655214 0.46305599973 0.40832116414 0.37445723342 0.35783077808 0.35413190653 
0.35979584044 0.37192170909 0.38755202081 0.40327418532 0.41435437554 0.41512846134 0.40081446339 0.37002749079 0.32522464933 
0.27171048133 0.2150878355 0.15923111917 0.10636880413 0.056933444412 0.010586992834 -0.033238170833 -0.076118421973 -0.12066667051 
-0.17218565251 -0.24344349404 -0.36595853056 -0.62012742224 -1.1441129893 -1.4595271779 -0.90388818302 -0.48902809641 -0.304066948 
-0.21951828653 -0.17859109344 -0.15855736951 -0.14826236929 -0.14106750672 -0.13253954751 -0.11975996442 -0.10191361954 -0.079695955699 
-0.054507127157 -0.027378178667 0.0013009684098 0.032469233701 0.06841332838 0.11290986613 0.17076088457 0.2458908762 0.33687040242 
0.42293478462 0.45788564431 0.40945949518 0.30588684892 0.20243593565 0.13104634559 0.098861580236 0.10155359543 0.12807232266 
0.16334912309 0.19170848597 0.2017801103 0.19138633576 0.16668180199 0.13564701067 0.10434247865 0.075540596504 0.050287210319 
0 0 
Abscissas 1 128 double
0 0.50227924373 1.0045584875 1.5068375746 2.0091166537 2.5113935784 3.0136704122 3.5159512768 4.0182323828 
4.5205098258 5.0227869683 5.525069221 6.0273520094 6.5296283948 7.0319039722 7.5341822536 8.0364609259 8.5387409432 
9.041021183 9.5432996318 10.045577738 10.547858391 11.050139601 11.552417381 12.054694323 12.556971934 13.059249724 
13.561525755 14.063801282 14.566076397 15.068351388 15.570628346 16.07290594 16.57518554 17.077465853 17.579745777 
18.082025547 18.584304093 19.086582109 19.588862493 20.091144001 20.593422318 21.095698986 21.597976454 22.100254364 
22.602533798 23.10481408 23.60709255 24.109370046 24.611649296 25.113929518 25.616209737 26.118489954 26.620769193 
27.123047812 27.625327241 28.127607225 28.629886112 29.132164189 29.634444414 30.136726328 30.639005984 31.141283761 
31.643562628 32.145842455 32.648121424 33.150399593 33.652685502 34.154979037 34.65725134 35.159501475 35.661765172 
36.164043934 36.666326524 37.168613643 37.670894988 38.173169092 38.675447174 39.17773056 39.68001354 40.182295938 
40.684574068 41.18684558 41.689123661 42.191412797 42.693698468 43.195977794 43.698251789 44.200515122 44.702789411 
45.205087695 45.707377823 46.209648382 46.711918249 47.214186298 47.716461397 48.218756846 48.72104498 49.223309823 
49.725574852 50.227840537 50.730114931 51.232422767 51.734727647 52.23702076 52.739305342 53.241553569 53.743811295 
54.24611485 54.748412857 55.25067994 55.752950982 56.255247781 56.757542886 57.259824921 57.762106288 58.264381318 
58.766657004 59.268940633 59.771223944 60.273502028 60.775779143 61.278031882 61.780285143 62.282561499 62.784838317 
63.287127011 63.789415706 
ParallelTransportNormals 3 128 double
0.6661716097 0 0.74579848915 0.59118525681 0.020138865949 0.80039973764 0.51619890393 0.040277731897 0.85500098613 
0.45939857734 0.055929785732 0.88415900902 0.40354281244 0.071348799608 0.91199553947 0.36436985927 0.080368117264 0.92681789969 
0.32590156367 0.089117121107 0.94109056039 0.30361501161 0.092334820938 0.94803979338 0.28229752815 0.095221270123 0.95455045164 
0.27695027554 0.095388854383 0.95612845713 0.27291347182 0.095333340209 0.95730171023 0.2802704578 0.097312935696 0.95493070427 
0.28882173796 0.099505850867 0.95218818996 0.29255686009 0.1014924722 0.9508389758 0.29568429779 0.10345306417 0.94966556294 
0.28337243407 0.089906902577 0.95452828751 0.26882801256 0.074118429467 0.96026385116 0.23886390598 0.032888094597 0.96885049563 
0.20634925597 -0.012550534616 0.97790873245 0.15398482382 -0.08454989558 0.97986462045 0.097818280319 -0.16163681161 0.98046009447 
0.017290035576 -0.26001608338 0.95579277806 -0.068567058627 -0.36305281965 0.92559950902 -0.15981738289 -0.46916849889 0.85338657863 
-0.25238561617 -0.57603655966 0.77090557326 -0.30832838512 -0.66264809427 0.66786729568 -0.35448673883 -0.74384814081 0.55933718637 
-0.3607065895 -0.79537628983 0.48031019495 -0.35548085549 -0.83840106017 0.40973821331 -0.3420709786 -0.86302653146 0.36970054475 
-0.32618475332 -0.88208476434 0.33890191297 -0.30913538456 -0.89672859798 0.31531881521 -0.29171000528 -0.90994538451 0.2940682901 
-0.27578064898 -0.92060619844 0.27534464259 -0.26038367484 -0.9303574313 0.25752022225 -0.25494190515 -0.93378702248 0.25107727468 
-0.2534153114 -0.93473044278 0.24911042485 -0.26695506146 -0.92528290844 0.26716592393 -0.28700852719 -0.91134299527 0.29387779575 
-0.3274250924 -0.87771918647 0.34007166081 -0.37750428018 -0.83475504841 0.39551004917 -0.45849737963 -0.75125603374 0.45203228033 
-0.55546401111 -0.6468122368 0.50911454406 -0.66866818141 -0.50893732455 0.50844303683 -0.7908215328 -0.3526371381 0.47594103106 
-0.87326586019 -0.24544717267 0.39956321326 -0.93365892313 -0.16552915608 0.29882022512 -0.96419508529 -0.12937335152 0.22333830743 
-0.9786939096 -0.1167239847 0.16142512294 -0.98610212328 -0.11481350716 0.11425713781 -0.98957656702 -0.11886081266 0.075269579576 
-0.98992990676 -0.12990401568 0.030446711675 -0.98843975729 -0.14507936598 -0.017822798905 -0.9789912474 -0.17045814654 -0.081986833591 
-0.96448760772 -0.20231811937 -0.15624702854 -0.93336718721 -0.23939540305 -0.24543408894 -0.8908544212 -0.28004963755 -0.34485490101 
-0.83193509113 -0.31054003568 -0.44534220087 -0.76091347348 -0.33353308884 -0.54661619453 -0.68848163057 -0.33842701649 -0.63418033037 
-0.61494101942 -0.32909078127 -0.71096529848 -0.55348633304 -0.30892259139 -0.77057018072 -0.50209984377 -0.27973082601 -0.81586316758 
-0.46762396106 -0.25367715092 -0.84617704474 -0.44804894685 -0.23038862032 -0.86329200185 -0.44028220443 -0.2236060334 -0.86952558234 
-0.44351835256 -0.23220360499 -0.8656199487 -0.44601196593 -0.26216596603 -0.8544615298 -0.44777380719 -0.31318344531 -0.83615545087 
-0.43710600824 -0.38096018443 -0.81064533471 -0.41346055578 -0.46623508627 -0.77761356087 -0.37090021501 -0.55877427935 -0.7331214667 
-0.30732771109 -0.65938322521 -0.67589833673 -0.22913675073 -0.75060511188 -0.60666896963 -0.13365726121 -0.83072538553 -0.5232404166 
-0.041774546377 -0.89038604166 -0.44149679725 0.045597259772 -0.92438719049 -0.36186634392 0.11990830032 -0.94602343021 -0.29435111282 
0.17680489169 -0.95117303444 -0.24298959956 0.22279796246 -0.95306964606 -0.20246488682 0.25316491891 -0.95030431077 -0.17747067015 
0.27645855844 -0.94772410275 -0.15887537675 0.28878527901 -0.94543092779 -0.15020137964 0.29644770811 -0.94400802309 -0.14480186024 
0.29626109638 -0.94404960378 -0.14491261169 0.29142180863 -0.94508558986 -0.1474704695 0.27806374269 -0.94794227416 -0.15450883619 
0.25804523044 -0.95154445363 -0.16484843257 0.2247084537 -0.9566373293 -0.18178918569 0.18412698832 -0.96067451091 -0.20258207636 
0.12767724057 -0.96239937069 -0.23181243195 0.067512305234 -0.96067468521 -0.26338715421 -0.0015662862845 -0.95067368536 -0.30058659339 
-0.069311308368 -0.93715431323 -0.33771493632 -0.13355097807 -0.91438672779 -0.37465639933 -0.19470738238 -0.88935464407 -0.4109836765 
-0.24696340813 -0.85778569457 -0.4455380001 -0.29764729854 -0.82275847125 -0.48163420107 -0.34332540198 -0.77671986639 -0.52263984558 
-0.38637444546 -0.72255764706 -0.56900536816 -0.42016377698 -0.63978355451 -0.63424871316 -0.44342813479 -0.55215200271 -0.70149979575 
-0.42628057662 -0.44586964569 -0.77645983086 -0.40356685294 -0.34710353204 -0.84472968389 -0.358699339 -0.27825267672 -0.88637206959 
-0.31634551553 -0.21589044294 -0.92328362939 -0.28470329238 -0.18117820083 -0.94003569981 -0.25547650693 -0.14899620225 -0.95513932264 
-0.23790363075 -0.12902202364 -0.96228958002 -0.22103611535 -0.10923854654 -0.96904953046 -0.20810075701 -0.090518168313 -0.97363364664 
-0.19468814465 -0.070083878192 -0.97819263933 -0.17816974345 -0.038496096774 -0.98258813788 -0.16086651274 -0.004781383813 -0.98662582875 
-0.13750465561 0.045352543345 -0.98790136168 -0.11354309515 0.096245670323 -0.98846207408 -0.08389180395 0.15434176304 -0.98224087261 
-0.054151112576 0.21206149737 -0.9754539229 -0.023327992391 0.26522440431 -0.96181707388 0.0071444028812 0.31788479797 -0.94792970899 
0.031859526246 0.36229626071 -0.92993003884 0.056028169934 0.40635408723 -0.91192685291 0.06646088308 0.44152316145 -0.89383529714 
0.076597878744 0.47620921883 -0.87598360967 0.073623296337 0.48947918338 -0.86876724845 0.070759674691 0.50225413884 -0.86182007893 
0.070759674691 0.50225413884 -0.86182007893 0.070759674691 0.50225413884 -0.86182007893 
FrenetTangent 3 128 double
-0.84931268315 0.19317152663 0.49127663037 -0.84931268315 0.19317152663 0.49127663037 -0.85636633213 0.18633929409 0.48157488791 
-0.86688870106 0.17444716065 0.46698197836 -0.8797821011 0.15650485674 0.44887602341 -0.8937859475 0.13139393899 0.42881501006 
-0.90757760658 0.098024447077 0.40828188279 -0.91980482095 0.05549278279 0.38843228806 -0.92906936509 0.0032545053406 0.36989123138 
-0.9339206897 -0.058667466966 0.35263334169 -0.93293605034 -0.12945095479 0.3359654391 -0.92493975261 -0.20728644724 0.31862012309 
-0.90933871308 -0.28935770139 0.29895689579 -0.88644235596 -0.37211403785 0.27522916343 -0.85756104034 -0.45183107261 0.24584089146 
-0.82473995968 -0.52527346013 0.20950367775 -0.79017794289 -0.59017842279 0.16525207368 -0.75555189544 -0.64537849034 0.11237409618 
-0.72148408644 -0.69059726635 0.050359991264 -0.68728352327 -0.72608406065 -0.021054584203 -0.65096282504 -0.7522643856 -0.10171378753 
-0.60949420857 -0.76949890513 -0.1907570306 -0.55928696756 -0.7779650958 -0.28630123584 -0.49688085612 -0.77765268187 -0.38518271146 
-0.41982123422 -0.76847276249 -0.48290759428 -0.32759967759 -0.75048349181 -0.57397994718 -0.22236507476 -0.72421859453 -0.65273363699 
-0.10894617495 -0.69101365524 -0.71458439616 0.0060632043845 -0.65311400852 -0.75723531972 0.11590523255 -0.61342381611 -0.78120240584 
0.21525685876 -0.57498901157 -0.78933650703 0.30108616009 -0.54049885389 -0.78562593716 0.37263611652 -0.51202852572 -0.7739309488 
0.43089667463 -0.49103213279 -0.75710996583 0.47792346316 -0.47847818974 -0.73664630951 0.51627419803 -0.47499436913 -0.71262984904 
0.54861596875 -0.48094197784 -0.68389716535 0.57743527431 -0.49639835518 -0.64819532315 0.60479643623 -0.52104895919 -0.60227008298 
0.63207623791 -0.55395112846 -0.54186509091 0.65958805685 -0.59311355049 -0.46169244252 0.68599847389 -0.6347872626 -0.35559981026 
0.70748891903 -0.67242980399 -0.21748008682 0.71693825478 -0.69575510892 -0.043867610441 0.70432767322 -0.69135005733 0.16111370819 
0.66037751632 -0.64728322691 0.38069142373 0.58309795667 -0.56127159221 0.58734229603 0.48109741907 -0.44481326705 0.75543790666 
0.36852451138 -0.31699759962 0.87390057006 0.2570969861 -0.19458280592 0.94659319213 0.15275336027 -0.087605058037 0.9843737932 
0.056835260996 -0.00050522401504 0.9983834423 -0.031630177793 0.065329346286 0.99736232552 -0.11427498667 0.1097423192 0.98736915629 
-0.19248052847 0.13289253124 0.97226067559 -0.26692062128 0.13491144561 0.95422863287 -0.33731854938 0.11590685764 0.9342279147 
-0.40233296249 0.076169209874 0.91231926362 -0.45956554111 0.016492396317 0.88799071746 -0.50574003571 -0.061440845065 0.86049522883 
-0.5371027304 -0.15470747506 0.82920820917 -0.55002240274 -0.25900288757 0.79397283374 -0.54169088926 -0.36880292954 0.75535116314 
-0.51073456076 -0.47785714128 0.71470466696 -0.45754272738 -0.57989750478 0.67407235262 -0.38421386392 -0.66936371077 0.63587100066 
-0.29416705517 -0.74191818004 0.60251403119 -0.19158507131 -0.79464011807 0.57605749991 -0.080887846223 -0.82593726374 0.55792902119 
0.033640903009 -0.83530761641 0.5487526543 0.14803276663 -0.82309397852 0.54827237986 0.25867292116 -0.79035534659 0.55536181538 
0.36232503276 -0.73889634819 0.56811333136 0.4562158609 -0.67138506225 0.58404553457 0.53824728217 -0.5914101248 0.60043644753 
0.60725444353 -0.50333742744 0.61473040835 0.66317316944 -0.41190560835 0.62492808958 0.70700243979 -0.32167056473 0.62982187793 
0.74052628756 -0.23650988416 0.62903409456 0.76590559195 -0.15933459622 0.62289735162 0.78529167559 -0.092073306522 0.61224136619 
0.80055259553 -0.035821395671 0.59819091384 0.8131366898 0.0089404569356 0.58200411676 0.82404958176 0.042119369927 0.56494977253 
0.83389627889 0.063838100628 0.54821683025 0.84293879469 0.074327038953 0.53285052284 0.85114505105 0.073868808126 0.51970713028 
0.85822610264 0.062784038397 0.50941743323 0.86365060869 0.041433798981 0.50238517734 0.86664886135 0.010253892522 0.49881320032 
0.86622233356 -0.030200175223 0.49874524385 0.86115969098 -0.079239476429 0.50212059509 0.85005988423 -0.13604147548 0.50881323702 
0.83134813147 -0.19966224885 0.51864753994 0.80327169105 -0.26907426996 0.53136957722 0.76388307296 -0.34316055246 0.54655602282 
0.71105486075 -0.42061682599 0.56345582852 0.64262085104 -0.499743825 0.58077065282 0.55677689456 -0.57813554567 0.59645517896 
0.45286018912 -0.65242034111 0.60767207243 0.33245735518 -0.71834687761 0.61110544951 0.20034099252 -0.77157259974 0.60377082577 
0.064359066549 -0.80910392673 0.5841307613 -0.066239175207 -0.83064930456 0.55284184403 -0.18334115895 -0.83887422295 0.51251932403 
-0.28185709803 -0.83833663365 0.46663504474 -0.36006181245 -0.8338789996 0.41833157333 -0.41876749366 -0.82940306393 0.36976255056 
-0.46018470768 -0.82737685293 0.32199002789 -0.48705430078 -0.82887064969 0.2752300023 -0.50215320919 -0.83385944197 0.22917370167 
-0.50804178191 -0.84160603144 0.18328348448 -0.50693162125 -0.85102944035 0.137000814 -0.50054733379 -0.86102983754 0.089888739569 
-0.48999649754 -0.87072587984 0.04171180383 -0.47568415234 -0.8795837551 -0.0075501643485 -0.45731926033 -0.88742983878 -0.0576834064 
-0.4340631038 -0.89435593273 -0.10824364887 -0.40480922517 -0.90054696834 -0.15857064369 -0.36859837033 -0.90607517814 -0.20775710084 
-0.32513840092 -0.91073956596 -0.25463397895 -0.27532906897 -0.91405765179 -0.29781288251 -0.22163773177 -0.91548062338 -0.33581534224 
-0.16809106367 -0.91476874998 -0.36734660524 -0.11972296645 -0.91231823527 -0.3915888774 -0.081611959956 -0.90917549764 -0.40833736357 
-0.05787782199 -0.90667190072 -0.41784712775 -0.05787782199 -0.90667190072 -0.41784712775 
FrenetNormal 3 128 double
-0.52006746114 -0.4658047802 -0.71592998443 -0.52006746114 -0.4658047802 -0.71592998443 -0.50310065839 -0.51114805292 -0.69686253704 
-0.47374830388 -0.5798213858 -0.66284968518 -0.42981286292 -0.66527845123 -0.61046333649 -0.36991533477 -0.75659489514 -0.53919088433 
-0.29535238066 -0.84017881617 -0.45482582171 -0.21053813341 -0.90517291786 -0.36923662217 -0.12103516764 -0.94759122165 -0.29567104161 
-0.031051860066 -0.96939944934 -0.24351691853 0.057094816686 -0.97451286565 -0.2169443629 0.14188934324 -0.96591607254 -0.21650301401 
0.22132062219 -0.94486714987 -0.24133638616 0.29224551214 -0.91112162416 -0.29060272988 0.35046785292 -0.86306968777 -0.36370729731 
0.39135410407 -0.79756441015 -0.45905661621 0.41128492612 -0.71053077985 -0.57095597066 0.41081953454 -0.60041511514 -0.6860969316 
0.39836292475 -0.47346602666 -0.78558061444 0.38921459433 -0.34363301656 -0.85465101035 0.39825949115 -0.22437200386 -0.88940799501 
0.43310347479 -0.12164992286 -0.89309723793 0.49313535609 -0.034619766791 -0.86926347693 0.57191076425 0.04039921507 -0.81932043863 
0.65970511695 0.10704163166 -0.74386238497 0.74565471622 0.16772036942 -0.64487899784 0.81999771101 0.22324115326 -0.52703618608 
0.87610971489 0.27288046667 -0.39745190702 0.91149844055 0.3150407988 -0.26442369023 0.9277895218 0.34768472085 -0.13535855394 
0.92961747463 0.36823163785 -0.014724528685 0.92289798484 0.37252017515 0.097406512528 0.91281469683 0.3523973672 0.20636236293 
0.90022288532 0.29216310712 0.32286138756 0.87329444608 0.1685185743 0.45711956921 0.80077618042 -0.027316528727 0.59834046841 
0.66833562965 -0.23920418158 0.70434994545 0.52392468297 -0.38359861954 0.76049656519 0.41111921767 -0.4434214981 0.79646617247 
0.32899066175 -0.44128195998 0.83488644514 0.26039482053 -0.39589969404 0.88060091398 0.18962482331 -0.31586270902 0.92966293646 
0.10532769969 -0.20396791017 0.97329500528 0.00080776271805 -0.062096306849 0.99806983533 -0.12380731764 0.10384799887 0.9868573054 
-0.25920972287 0.27931004423 0.92455190161 -0.38881534145 0.44198772922 0.80837458982 -0.49770503244 0.57079665266 0.65305503749 
-0.5814645035 0.65486761729 0.48274986794 -0.64651911464 0.69340088183 0.31813244332 -0.7045197406 0.688866148 0.17063225148 
-0.76626868683 0.64101563986 0.043945978515 -0.83714452383 0.54343995046 -0.062145526506 -0.91091151398 0.38505833652 -0.14822378749 
-0.96393608034 0.15996064078 -0.21269655947 -0.96094565285 -0.11231630578 -0.25291994725 -0.88325028382 -0.38231934645 -0.27147901109 
-0.74631589179 -0.60445113474 -0.27866003547 -0.57819573086 -0.76448895912 -0.28503741543 -0.39740775114 -0.8687284233 -0.29559770954 
-0.21158825854 -0.92689768375 -0.30998563308 -0.023632086508 -0.94548751949 -0.32479974597 0.1638413965 -0.92769907162 -0.3354555549 
0.3470040396 -0.87516086085 -0.33716711603 0.52053729343 -0.7892842228 -0.32568595578 0.67784172061 -0.67212620965 -0.29795462758 
0.81146136416 -0.52695148598 -0.25269069214 0.91361294345 -0.35884520311 -0.19115833691 0.97744003588 -0.17530593977 -0.11780833476 
0.99908961398 0.01369433515 -0.040403074454 0.97982459791 0.1973307042 0.031691489488 0.92620269138 0.36619068412 0.089738271383 
0.84807266229 0.51420905562 0.1279132776 0.75575878991 0.63882026452 0.14400458715 0.65821137663 0.73993268539 0.1387710516 
0.56254672167 0.81877063112 0.11469890825 0.47415949617 0.87723611833 0.075030426497 0.39724080422 0.91743500997 0.022643894246 
0.33471603812 0.94146709339 -0.040061027083 0.28857699829 0.95093216416 -0.11158555115 0.26034373865 0.9463107796 -0.19161692554 
0.25141244074 0.9261916719 -0.28099959351 0.2643373109 0.88515792501 -0.38291152222 0.30463870742 0.80783258817 -0.50458078385 
0.38254439992 0.64913698064 -0.65748076965 0.49476862428 0.28192976894 -0.82202166262 0.50549144608 -0.38227074442 -0.77352923403 
0.32607603393 -0.8331671856 -0.44666190898 0.16054009913 -0.96733168898 -0.19620468921 0.041294120083 -0.99783262485 -0.051233274589 
-0.05571411046 -0.99778499044 0.036346261849 -0.14493786335 -0.98504861638 0.09312485776 -0.23298297693 -0.96353287407 0.13161813346 
-0.32262408562 -0.93327043389 0.15786068731 -0.41427104279 -0.89339403267 0.1738580038 -0.50708782733 -0.84301088287 0.17942850031 
-0.59929860269 -0.7816564189 0.1727843384 -0.68853010156 -0.70918165033 0.15161690566 -0.77179715308 -0.62554367669 0.11412389339 
-0.84523758109 -0.53103887972 0.05975901382 -0.90415429831 -0.42708544963 -0.010150052702 -0.94376846465 -0.31741193613 -0.092470254362 
-0.96085276417 -0.20830948648 -0.18267217473 -0.95483299164 -0.10807726232 -0.27679101043 -0.92751756615 -0.025133141527 -0.37293362637 
-0.88057895614 0.032914405606 -0.47275505699 -0.81249746805 0.059923009206 -0.579876795 -0.71584247815 0.050963276713 -0.6963995196 
-0.57936582523 0.0050480959945 -0.81505199668 -0.40207119784 -0.06695579354 -0.91315698189 -0.20944020631 -0.13985101769 -0.967768822 
-0.040397996033 -0.18927413976 -0.98109291198 0.085989092993 -0.20807052486 -0.97432670731 0.1754478967 -0.20257229682 -0.96342228545 
0.24336645174 -0.18258686833 -0.9525937254 0.30555387716 -0.15718422713 -0.93911125374 0.37387480659 -0.13300540671 -0.91789279918 
0.45370666695 -0.11321839059 -0.88392978024 0.54314469668 -0.097301867073 -0.83398212519 0.6345172913 -0.081901428874 -0.76855706554 
0.7184152405 -0.062784406589 -0.69277533192 0.78842656138 -0.037440854614 -0.61398838729 0.84230379404 -0.0062184226453 -0.53896720657 
0.88072635091 0.028026325133 -0.47279553711 0.90608139425 0.060815807931 -0.41870985718 0.92101507233 0.087773825462 -0.37950888278 
0.92837084015 0.10503488662 -0.35650421561 0.92837084015 0.10503488662 -0.35650421561 
FrenetBinormal 3 128 double
0.090541714779 -0.86354540589 0.49607613311 0.090541714779 -0.86354540589 0.49607613311 0.11630319306 -0.83905025802 0.53147740479 
0.15513389232 -0.79584882277 0.58528465446 0.20308706862 -0.73000740554 0.65256787418 0.25359283341 -0.64054648343 0.72483851816 
0.29844573926 -0.53337675674 0.79147923288 0.3311084199 -0.42140543403 0.84426576055 0.34954342084 -0.3194687541 0.88077188426 
0.35612908802 -0.23837540969 0.90352046835 0.35548629773 -0.18321333191 0.91654916242 0.35263843852 -0.15504344421 0.92282591104 
0.35230709202 -0.15329119263 0.9232451046 0.35890459763 -0.1771680807 0.91640545665 0.37651207969 -0.22574187887 0.89848720523 
0.40822293437 -0.29661221104 0.86335116385 0.45438257903 -0.38319112746 0.80417723899 0.51026330784 -0.47221636325 0.7187788693 
0.5663635698 -0.54672235852 0.61670655055 0.61331342575 -0.59558230901 0.51877582345 0.64624823259 -0.61948002231 0.44565426491 
0.6640317687 -0.626955127 0.40741757312 0.66634496208 -0.62735299591 0.40300447893 0.65270781561 -0.62739477987 0.42467434304 