# vtk DataFile Version 4.2
vtk output
ASCII
DATASET POLYDATA
POINTS 128 float
0 0 0 -0.246796 -0.0145552 0.229851 -0.74082 -0.0283797 0.666344 
-1.1792 -0.00673443 0.99952 -1.56948 0.038465 1.24354 -1.99123 0.0850949 1.4872 
-2.44083 0.126406 1.72941 -2.89541 0.159288 1.94815 -3.35424 0.176941 2.14433 
-3.82189 0.171551 2.32446 -4.29596 0.135808 2.48834 -4.77158 0.0624185 2.63388 
-5.24276 -0.0566831 2.76074 -5.70253 -0.229092 2.86933 -6.14072 -0.458117 2.96098 
-6.54683 -0.7442 3.03772 -6.91577 -1.07966 3.10357 -7.24568 -1.45367 3.16298 
-7.54267 -1.855 3.2184 -7.81607 -2.27281 3.27073 -8.0756 -2.69996 3.31603 
-8.33044 -3.13126 3.34645 -8.58474 -3.5643 3.34065 -8.8379 -3.99663 3.27169 
-9.06999 -4.41569 3.11672 -9.25328 -4.8056 2.85945 -9.37156 -5.16306 2.52143 
-9.41572 -5.49169 2.14146 -9.3885 -5.80135 1.74628 -9.29865 -6.10416 1.35533 
-9.15428 -6.40416 0.978737 -8.96332 -6.70102 0.621191 -8.73486 -6.99404 0.283216 
-8.47838 -7.28248 -0.0371101 -8.20019 -7.56721 -0.342906 -7.90472 -7.84996 -0.637324 
-7.59688 -8.13212 -0.91604 -7.28094 -8.41526 -1.17123 -6.94999 -8.7064 -1.40968 
-6.59208 -9.01554 -1.64006 -6.22745 -9.34363 -1.7665 -5.90089 -9.68202 -1.63192 
-5.68193 -9.97699 -1.25624 -5.64713 -10.1515 -0.783883 -5.76763 -10.2235 -0.293153 
-5.96087 -10.2593 0.178717 -6.20305 -10.2736 0.616083 -6.50312 -10.2509 1.01557 
-6.85166 -10.1841 1.37399 -7.22806 -10.0709 1.68897 -7.61455 -9.91115 1.96744 
-7.99553 -9.706 2.22215 -8.35937 -9.45963 2.46567 -8.69705 -9.17835 2.71028 
-8.99982 -8.86995 2.96654 -9.25883 -8.54312 3.24409 -9.46215 -8.20534 3.55567 
-9.59418 -7.86547 3.91548 -9.61925 -7.56744 4.32504 -9.49043 -7.38045 4.77365 
-9.22702 -7.34503 5.21434 -8.89954 -7.47565 5.57598 -8.56292 -7.74492 5.8447 
-8.25802 -8.09683 6.0488 -8.00432 -8.5001 6.20821 -7.80517 -8.94266 6.33567 
-7.65999 -9.4123 6.44244 -7.56513 -9.89657 6.53871 -7.51138 -10.3868 6.6333 
-7.48471 -10.8775 6.73397 -7.4664 -11.3654 6.84907 -7.43342 -11.8488 6.9874 
-7.35687 -12.3166 7.15647 -7.20363 -12.7489 7.36206 -6.96386 -13.125 7.6 
-6.65053 -13.4242 7.85671 -6.28286 -13.6431 8.12246 -5.88488 -13.7949 8.39185 
-5.47236 -13.8904 8.66221 -5.05222 -13.9365 8.93352 -4.62985 -13.9377 9.20546 
-4.20941 -13.8965 9.47727 -3.79408 -13.8154 9.74782 -3.38598 -13.6981 10.0156 
-2.98511 -13.5508 10.2795 -2.58893 -13.3835 10.5384 -2.19281 -13.2086 10.792 
-1.78971 -13.0413 11.0402 -1.37423 -12.8969 11.2826 -0.943506 -12.7904 11.5178 
-0.498577 -12.7331 11.7447 -0.0457683 -12.7301 11.9625 0.40797 -12.7821 12.1721 
0.855383 -12.8837 12.3773 1.28988 -13.0294 12.583 1.70593 -13.2146 12.7951 
2.097 -13.4363 13.0194 2.45473 -13.6937 13.2614 2.76785 -13.9864 13.5249 
3.02036 -14.3146 13.8109 3.19697 -14.6753 14.1158 3.28454 -15.0602 14.4281 
3.27779 -15.4598 14.735 3.18602 -15.8626 15.0235 3.02213 -16.2601 15.2843 
2.80294 -16.6491 15.5158 2.54383 -17.0285 15.7187 2.25617 -17.3995 15.897 
1.94967 -17.7641 16.0554 1.63143 -18.1247 16.199 1.30782 -18.4845 16.332 
0.984163 -18.8469 16.4578 0.665813 -19.2158 16.5778 0.358412 -19.5965 16.6902 
0.068463 -19.994 16.7908 -0.195397 -20.4139 16.8705 -0.42387 -20.8596 16.9187 
-0.6068 -21.3278 16.9236 -0.737038 -21.8121 16.877 -0.816808 -22.299 16.7825 
-0.851701 -22.7782 16.6455 -0.8524 -23.2532 16.4702 -0.829801 -23.7228 16.265 
-0.792226 -24.1613 16.0527 -0.747814 -24.5675 15.8396 -0.705911 -25.0435 15.5631 
-0.67557 -25.6039 15.2165 -0.663954 -25.8886 15.0368 
LINES 1 129
128 0 1 2 3 4 5 6 7 8 9 10 11 12 13 14 15 16 17 18 19 20 21 22 23 24 25 26 27 28 29 30 31 32 33 34 35 36 37 38 39 40 41 42 43 44 45 46 47 48 49 50 51 52 53 54 55 56 57 58 59 60 61 62 63 64 65 66 67 68 69 70 71 72 73 74 75 76 77 78 79 80 81 82 83 84 85 86 87 88 89 90 91 92 93 94 95 96 97 98 99 100 101 102 103 104 105 106 107 108 109 110 111 112 113 114 115 116 117 118 119 120 121 122 123 124 125 126 127 

CELL_DATA 1
FIELD FieldData 2
Length 1 1 double
54.626577031 
Tortuosity 1 1 double
0.82416649364 
POINT_DATA 128
SCALARS MaximumInscribedSphereRadius float
LOOKUP_TABLE default
0.93 1.15798 1.38595 1.42592 1.45589 1.3707 1.28006 1.26291 1.25071 
1.18713 1.11885 1.04712 0.974991 1.06283 1.17333 1.2107 1.23595 1.24 
1.24 1.24 1.24 1.24 1.24 1.3215 1.42632 1.48863 1.53786 
1.41435 1.23429 1.01623 0.784523 0.768167 0.83682 0.965595 1.12055 1.29546 
1.47995 1.6423 1.79295 1.8248 1.78775 1.86744 2.01981 1.93378 1.75368 
1.709 1.72066 1.77068 1.83798 1.86 1.86 1.86 1.86 1.91846 
2.01069 2.13173 2.27088 2.20679 2.00563 1.9045 1.87235 1.86 1.86 
1.82654 1.77147 1.71129 1.64759 1.68337 1.7932 1.8423 1.84225 1.77841 
1.65831 1.59366 1.58146 1.61894 1.70526 1.776 1.83042 1.85946 1.85981 
1.86 1.86 1.88467 1.9422 2.00274 2.06764 2.07371 1.98612 1.94719 
1.99276 2.0591 2.16462 2.26716 2.36356 2.41465 2.36355 2.3044 2.22535 
2.15515 2.1089 2.05524 1.98007 1.9155 1.88426 1.86802 1.90389 1.9711 
2.16101 2.33107 2.41203 2.48 2.48 2.48 2.48 2.46084 2.29912 
2.14331 2.04034 1.95419 2.05219 2.13826 2.05089 1.96054 1.80936 1.65522 
1.44761 1.24 
TEXTURE_COORDINATES TCoords 2 float
0 0 0.00787402 0 0.015748 0 0.023622 0 0.0314961 
0 0.0393701 0 0.0472441 0 0.0551181 0 0.0629921 0 
0.0708661 0 0.0787402 0 0.0866142 0 0.0944882 0 0.102362 
0 0.110236 0 0.11811 0 0.125984 0 0.133858 0 
0.141732 0 0.149606 0 0.15748 0 0.165354 0 0.173228 
0 0.181102 0 0.188976 0 0.19685 0 0.204724 0 
0.212598 0 0.220472 0 0.228346 0 0.23622 0 0.244094 
0 0.251969 0 0.259843 0 0.267717 0 0.275591 0 
0.283465 0 0.291339 0 0.299213 0 0.307087 0 0.314961 
0 0.322835 0 0.330709 0 0.338583 0 0.346457 0 
0.354331 0 0.362205 0 0.370079 0 0.377953 0 0.385827 
0 0.393701 0 0.401575 0 0.409449 0 0.417323 0 
0.425197 0 0.433071 0 0.440945 0 0.448819 0 0.456693 
0 0.464567 0 0.472441 0 0.480315 0 0.488189 0 
0.496063 0 0.503937 0 0.511811 0 0.519685 0 0.527559 
0 0.535433 0 0.543307 0 0.551181 0 0.559055 0 
0.566929 0 0.574803 0 0.582677 0 0.590551 0 0.598425 
0 0.606299 0 0.614173 0 0.622047 0 0.629921 0 
0.637795 0 0.645669 0 0.653543 0 0.661417 0 0.669291 
0 0.677165 0 0.685039 0 0.692913 0 0.700787 0 
0.708661 0 0.716535 0 0.724409 0 0.732283 0 0.740157 
0 0.748031 0 0.755906 0 0.76378 0 0.771654 0 
0.779528 0 0.787402 0 0.795276 0 0.80315 0 0.811024 
0 0.818898 0 0.826772 0 0.834646 0 0.84252 0 
0.850394 0 0.858268 0 0.866142 0 0.874016 0 0.88189 
0 0.889764 0 0.897638 0 0.905512 0 0.913386 0 
0.92126 0 0.929134 0 0.937008 0 0.944882 0 0.952756 
0 0.96063 0 0.968504 0 0.976378 0 0.984252 0 
0.992126 0 1 0 
FIELD FieldData 7
Curvature 1 128 double
0 0.017284518422 0.032185991109 0.046212905619 0.059536161367 0.072685295462 0.086335351321 0.10100940888 0.11681387888 
0.13330479339 0.14951907927 0.16413155463 0.1757528852 0.18334326055 0.1866452879 0.18645473877 0.18461881122 0.1836698325 
0.18619350763 0.19401971225 0.20755504343 0.22552660271 0.2451397102 0.26256617364 0.27384534697 0.27603415881 0.26832657021 
0.25219766186 0.23072804448 0.20747347019 0.18565444311 0.16812004924 0.15749360783 0.15671243851 0.16925404021 0.19960736416 
0.25468253179 0.34650619228 0.49506543302 0.72523352015 1.0371991646 1.3293696939 1.39598118 1.1840437263 0.87649591003 
0.62060847356 0.44282484637 0.32338073192 0.24104146012 0.18240127746 0.14158502612 0.11986644211 0.12342420059 0.15504419398 
0.21269598624 0.29677283237 0.40962272806 0.54718180766 0.68464200875 0.77092640538 0.76019681888 0.65992357521 0.52134920125 
0.38900128794 0.27997646805 0.1938640839 0.12467944519 0.066749186799 0.021133793217 0.043568203334 0.091142113476 0.13936842393 
0.18538396781 0.22545710815 0.25500765774 0.27027480145 0.26997344126 0.25591605134 0.23191093669 0.20209193176 0.16961882898 
0.13649553556 0.10373107161 0.071887776846 0.041879294906 0.01959856135 0.030121849912 0.055934984379 0.082371366137 0.10746895285 
0.13077140095 0.15235706642 0.17284695472 0.19319245156 0.21434783613 0.23689013509 0.26058208883 0.2839912027 0.30444684472 
0.31847017335 0.3226106762 0.31484160609 0.2954419872 0.26691745992 0.23298524157 0.19736020638 0.16304852884 0.13239623483 
0.10752302862 0.091059164919 0.085708150015 0.091715853112 0.10595455043 0.12428454339 0.14325354435 0.16002558395 0.1721600468 
0.17773791606 0.17587258321 0.16672593467 0.15162234412 0.13232926253 0.11061178787 0.087877844074 0.06493544618 0.042233417153 
0.019786676667 0 
Torsion 1 128 double
0 0 0.1338062963 0.17866889382 0.2168718703 0.24175781453 0.24898045699 0.23851953319 0.21455139727 
0.1825433333 0.14673941781 0.10920562632 0.069767719292 0.027260565703 -0.01972835539 -0.07141054599 -0.12418652779 -0.16884506814 
-0.19172472884 -0.18278300218 -0.14426258828 -0.088460580018 -0.028516159045 0.027687151996 0.07759991495 0.12185280911 0.16217969967 
0.20102331053 0.24147247905 0.28721920642 0.34248863901 0.4080599465 0.47509216927 0.52027448386 0.51894731381 0.47138746301 
0.40252496632 0.33601836211 0.28053444864 0.23360758984 0.19026738588 0.15138100898 0.11884591354 0.084230813511 0.034369213828 
-0.033751556608 -0.11585625212 -0.21311245032 -0.33920525226 -0.52394047537 -0.8038936138 -1.1155778746 -1.1515715646 -0.89228772063 
-0.64938532966 -0.50307969458 -0.42132931154 -0.37294675504 -0.34205388087 -0.32268525221 -0.3122166801 -0.30465379727 -0.29067219315 
-0.26363412198 -0.22103771947 -0.15739160397 -0.042711895646 0.32616469528 4.5033154965 0.94663761925 0.14692497547 0.027737861447 
-0.0011480130205 -0.0069291197898 -0.0051290053397 -0.0010793146739 0.0026878646611 0.0045051763954 0.0025078750585 -0.0050884046638 -0.020710419118 
-0.049723797455 -0.10580012594 -0.23699320256 -0.6951753042 -3.0694197516 -1.293033745 -0.41019070881 -0.23470202697 -0.18721198427 
-0.17703818129 -0.17943292787 -0.18328289308 -0.18226555501 -0.17288861187 -0.15443614145 -0.12869658539 -0.099129521678 -0.068903942021 
-0.040235276123 -0.014144872826 0.0098714229989 0.033276444903 0.058661300558 0.090049426149 0.13372066796 0.20041092273 0.30477736128 
0.45659426217 0.62005479047 0.66729815507 0.53737544457 0.3541643338 0.21105794251 0.11657707874 0.056257302621 0.017208944247 
-0.0089185855191 -0.026681373112 -0.038834334625 -0.046968359851 -0.051047240261 -0.051324740195 -0.047651006387 -0.040172787642 -0.03035115277 
0 0 
Abscissas 1 128 double
0 0.50184795382 1.0036959076 1.5055445806 2.0073932917 2.5092403893 3.0110874106 3.5129344414 4.0147814728 
4.5166275611 5.0184735629 5.5203213735 6.0221693954 6.5240176198 7.025865873 7.5277118589 8.0295574693 8.5314069093 
9.0332570804 9.5351049901 10.036952401 10.538799358 11.0406462 11.542494954 12.044344255 12.54619417 13.048044273 
13.549889662 14.051733507 14.553581283 15.055430471 15.557278509 16.059126093 16.560975656 17.062826081 17.564672275 
18.066516436 18.568363808 19.070212879 19.572061514 20.073909896 20.575756683 21.077602476 21.579447274 22.081291678 
22.583138859 23.084987196 23.586836569 24.08868641 24.590534068 25.092380665 25.594228448 26.09607686 26.597925206 
27.099773512 27.601622002 28.103470606 28.605319028 29.107167328 29.609015371 30.110863236 30.612710713 31.11455795 
31.616408535 32.118261283 32.620108133 33.121950914 33.623794769 34.125639421 34.627492866 35.129353428 35.631207123 
36.133054759 36.634897014 37.136734178 37.638575194 38.140419997 38.642266135 39.14411367 39.645961365 40.147809239 
40.649656474 41.151502926 41.653355723 42.155216972 42.657059734 43.158875637 43.660715451 44.162593326 44.664457493 
45.16629785 45.668136707 46.169972734 46.671816463 47.17367604 47.675527563 48.177360913 48.679193012 49.181022011 
49.682865038 50.184745987 50.686613548 51.188442182 51.690280148 52.192147416 52.694011855 53.195866477 53.697720561 
54.199572536 54.701420581 55.203250985 55.705083076 56.206923994 56.708768056 57.21063161 57.712493668 58.214344603 
58.716195833 59.218049702 59.719902408 60.221742397 60.723581466 61.225407155 61.727235343 62.229114401 62.730989648 
63.232796071 63.734602494 
ParallelTransportNormals 3 128 double
0.66784881107 0 0.7442969606 0.61922151272 0.0012855878918 0.78264463656 0.57059421437 0.0025711757836 0.82099231252 
0.52917072377 0.0062256072806 0.84711849857 0.48813009963 0.010005937582 0.87259513943 0.45079579911 0.012866014343 0.89154654823 
0.41363671908 0.015682585116 0.91018946957 0.37790903371 0.015882121553 0.92489523886 0.34227759714 0.015905685255 0.93933626902 
0.30851652262 0.011833212349 0.95047206926 0.27492690704 0.0073852495238 0.96130487404 0.24823544239 -0.00089581646133 0.96828935099 
0.22234976832 -0.0096246369961 0.97482429496 0.21024525716 -0.016361804211 0.97743552298 0.20009282506 -0.022816857008 0.97949096309 
0.20084807139 -0.021471494505 0.97938008537 0.20340983739 -0.018834234387 0.97891042407 0.20397685799 -0.018188336462 0.97880668176 
0.20416311164 -0.017922559687 0.9787727879 0.18729503248 -0.045797899999 0.98043672484 0.16666931632 -0.079873664802 0.98247475042 
0.11071957198 -0.17680837564 0.96936515687 0.045823129773 -0.28966369425 0.95241904812 -0.025047338598 -0.43440420764 0.88063580992 
-0.097626945239 -0.58826691185 0.79316395003 -0.12507083966 -0.68076370109 0.71414931362 -0.13863022334 -0.7543832939 0.63773626262 
-0.13969809292 -0.78246300105 0.60646776996 -0.13667699641 -0.79563570437 0.58997687488 -0.13703039092 -0.79717038415 0.58798250913 
-0.13859483802 -0.79452835744 0.59119072335 -0.14105428103 -0.79141661723 0.59475461538 -0.14386702399 -0.78811945745 0.59845891136 
-0.14856523164 -0.78335113589 0.60349413717 -0.154084572 -0.77794211336 0.609108992 -0.16702454264 -0.76613016783 0.62010517822 
-0.18353057583 -0.75124122979 0.63368742028 -0.23141074705 -0.70845956247 0.66090622275 -0.2958901494 -0.6509205858 0.6953397706 
-0.48448633598 -0.45653431358 0.65180731318 -0.7450625406 -0.18278511827 0.56305942017 -0.8837186506 0.024389629412 0.3187811384 
-0.94646373995 0.19011317674 -0.022334917233 -0.92541613844 0.25103343356 -0.23267219157 -0.87131108866 0.2706072517 -0.39141531429 
-0.79612310183 0.27207704023 -0.52203235902 -0.71216397473 0.26601500419 -0.64094810358 -0.63110624161 0.24806940797 -0.7274091903 
-0.55135484192 0.22477331741 -0.79925778205 -0.50430512815 0.20619174684 -0.83761694458 -0.47316593957 0.18990395676 -0.85968231697 
-0.47275391417 0.19266155601 -0.85958633728 -0.48860514165 0.20549948651 -0.84776081163 -0.52277510647 0.24551183994 -0.81229663467 
-0.56752373908 0.30121682478 -0.76318165663 -0.61300169821 0.39735534759 -0.6599874117 -0.65893777735 0.51889184147 -0.52282375118 
-0.6278065172 0.64845943591 -0.27185270695 -0.54469978705 0.78344333548 0.055871892164 -0.38404415955 0.79471924969 0.34738764902 
-0.16991018606 0.72068513797 0.6139334958 -0.020318584321 0.61858829398 0.76718254393 0.089020447477 0.49898981405 0.84977278006 
0.15547765183 0.40226728392 0.89799438362 0.19425063641 0.32031331335 0.92402782883 0.21483651135 0.26496102672 0.93934918227 
0.22287918149 0.22795527102 0.94728266794 0.22582016662 0.21824464939 0.94935571566 0.22496426201 0.22884822088 0.94706717761 
0.22077984543 0.26957928937 0.93530561506 0.21390128788 0.33469594657 0.91587646303 0.18875870254 0.42329789124 0.87875708413 
0.14750138099 0.53262139945 0.82602924566 0.0861841998 0.6265055624 0.76605787475 0.0058896288531 0.70578351785 0.69923384682 
-0.071288200699 0.7602747653 0.64033685165 -0.14540175736 0.79039657432 0.58923344236 -0.21400892521 0.80930383494 0.54312842227 
-0.27684748001 0.81646248996 0.50225982377 -0.33708973 0.81758949338 0.46314280006 -0.39439488029 0.8118931215 0.42600726548 
-0.44615003077 0.80303752191 0.39233927541 -0.49109841664 0.79030730607 0.36292403488 -0.52265431953 0.78067193541 0.34231696065 
-0.53636803353 0.77515968457 0.33344460111 -0.53104359568 0.77703251151 0.33634680134 -0.49805782658 0.78963542848 0.35635675452 
-0.44788796104 0.80388250868 0.38482531383 -0.37036486478 0.82074672831 0.4267580786 -0.28845897618 0.83106273257 0.46920112632 
-0.19894032607 0.83000470899 0.51253051822 -0.11765669695 0.8238336115 0.55158684735 -0.051909184048 0.80801623496 0.58258165487 
0.0049615726147 0.79145843722 0.61018609508 0.043567961324 0.77337718603 0.63081468575 0.077515170469 0.75526928233 0.65034185579 
0.10095032946 0.73710124521 0.66738399839 0.12276296959 0.71664602586 0.6860018748 0.14055446465 0.69052240307 0.70852494723 
0.15543676971 0.66004385943 0.73402175871 0.16245443523 0.6177923196 0.7675577102 0.16442254364 0.57378893677 0.80127768242 
0.15170879663 0.52469197741 0.83553270468 0.1364058993 0.47763549564 0.8672217943 0.11297283284 0.43698630036 0.89085362045 
0.090106688265 0.39943061965 0.91203435798 0.069207579761 0.37260843681 0.92471060853 0.049838754877 0.34813261446 0.93603080012 
0.036459030327 0.33283978817 0.9420437578 0.02363103516 0.31816397759 0.94769426308 0.013279776911 0.30625797708 0.9517177039 
0.0014936259121 0.2922061272 0.95618903886 -0.017802292242 0.26692359183 0.96300450768 -0.039426113043 0.23637274172 0.97013805179 
-0.075482627361 0.17315902579 0.97924362132 -0.11147686196 0.10508389138 0.98681173101 -0.14700770533 0.00083745434354 0.98294039662 
-0.18029891706 -0.10281028305 0.97720393785 -0.1935815874 -0.20110932547 0.95480473063 -0.20570285387 -0.29642650722 0.93224761844 
-0.20511021553 -0.35910121775 0.90796191833 -0.20437188985 -0.4200068042 0.88409851524 -0.20151599369 -0.45519811071 0.86637321389 
-0.19872992143 -0.48959457367 0.84897744725 -0.19736495732 -0.50781378721 0.83828861704 -0.19607161674 -0.52507698706 0.82816066 
-0.19607161674 -0.52507698706 0.82816066 -0.19607161674 -0.52507698706 0.82816066 
FrenetTangent 3 128 double
-0.83476733852 0.020733680919 0.55021232722 -0.83476733852 0.020733680919 0.55021232722 -0.84111690712 0.016635736799 0.54059744803 
-0.85068325296 0.009062750891 0.52560048486 -0.86255552144 -0.0031124390512 0.50595284875 -0.87562985248 -0.02116096083 0.48251898944 
-0.88867529987 -0.046311135092 0.45619238285 -0.90036784183 -0.079565973232 0.42779318052 -0.90930579998 -0.12153202042 0.3979860929 
-0.91403758768 -0.17226144379 0.36723464336 -0.91314367768 -0.23111690272 0.33578803015 -0.90539762235 -0.29669242839 0.30369186421 
-0.88999184057 -0.3668475613 0.27080877108 -0.86676409891 -0.43890319544 0.23682056893 -0.83630671692 -0.510003429 0.20121525204 
-0.79986301651 -0.577551234 0.16325969166 -0.75899843319 -0.63956427782 0.12197914968 -0.7151345971 -0.69482190135 0.076190769968 
-0.66910689625 -0.74275850509 0.024612283584 -0.6208757888 -0.78317458551 -0.033923789504 -0.56946764135 -0.81589092585 -0.10014291079 
-0.51317014598 -0.8404817076 -0.17391636052 -0.44997724009 -0.85620742203 -0.25382934003 -0.37824902883 -0.86222071709 -0.33690222204 
-0.2974306073 -0.85803049624 -0.41871076099 -0.20854709957 -0.84404686241 -0.49405769027 -0.11417911114 -0.82190209973 -0.55806815806 
-0.0178799241 -0.79430838372 -0.60725159519 0.076686145131 -0.76451956399 -0.64002271165 0.16648385848 -0.73569416915 -0.65653424461 
0.24946522811 -0.7104538447 -0.65804440163 0.32459052203 -0.6907387741 -0.64615860202 0.39161647105 -0.67787802205 -0.62218801565 
0.45078224028 -0.67275451407 -0.58668282372 0.50246553658 -0.67595720803 -0.53908277423 0.54676632474 -0.68785309285 -0.47739366229 
0.58293464714 -0.70848458121 -0.39778988845 0.60844341646 -0.73708698736 -0.29410777281 0.6173699867 -0.77074691602 -0.15749124092 
0.59785887389 -0.80128843921 0.022396519639 0.53028398943 -0.81003231594 0.2502929038 0.39429691003 -0.76648283994 0.50698520966 
0.19471377964 -0.64888814632 0.73554790299 -0.023027060093 -0.47728937676 0.87844442359 -0.21067617353 -0.29795716286 0.93104085786 
-0.35145661766 -0.14017370582 0.92565089429 -0.45000574508 -0.0099003918596 0.89297077871 -0.51544082922 0.096737356495 0.85144737679 
-0.55504721354 0.18494596909 0.81099789103 -0.57363137232 0.25865288522 0.77720379159 -0.57415492509 0.32015328495 0.75355689641 
-0.55830476802 0.37028435065 0.74241853807 -0.52678396642 0.40855006447 0.74537607793 -0.47941516901 0.43305946546 0.76329587651 
-0.41517961536 0.44026760618 0.79610949118 -0.33237910251 0.42457376623 0.84217649531 -0.22933444908 0.37812806052 0.89689736331 
-0.10629030547 0.29185607852 0.95053795316 0.030934262625 0.15966810054 0.9866859526 0.16736639717 -0.013458747401 0.98580289674 
0.28165540556 -0.20609677439 0.93712024421 0.35778002855 -0.38872787249 0.849048934 0.39407671094 -0.54048522905 0.74335675356 
0.40000021312 -0.65566258626 0.64039550474 0.38792304862 -0.73819769014 0.55188755977 0.36844316323 -0.79480167294 0.48222394814 
0.34944731316 -0.83151391489 0.43182309418 0.33658027856 -0.85273469101 0.39944619517 0.333829846 -0.86118473308 0.38329947747 
0.34387328523 -0.85806050605 0.38142277287 0.36816423079 -0.84321743768 0.39171348198 0.40680228975 -0.81544393795 0.41178037971 
0.45826334842 -0.77297118721 0.43875989701 0.51918577898 -0.71432192595 0.46924440648 0.584544193 -0.63938592491 0.49949346889 
0.64846823731 -0.55028322031 0.52600125726 0.70557404407 -0.45145891614 0.54621434929 0.75222136323 -0.34882168935 0.55900487452 
0.78707730349 -0.24838174035 0.56463778601 0.81085667697 -0.15514843747 0.56430524698 0.82558514673 -0.072688462878 0.55957622614 
0.83384130026 -0.0032318039748 0.55199478387 0.83820388603 0.051984131246 0.54287373813 0.84090192874 0.092356773214 0.53324869684 
0.84360951613 0.11767443031 0.52390429731 0.84732828755 0.12797008345 0.51542063487 0.85232462434 0.1234629453 0.50823187217 
0.85812418344 0.1045879709 0.5026770754 0.86356832439 0.072058375101 0.49905644941 0.86693774942 0.026937336887 0.49768797304 
0.86615337796 -0.029328476834 0.49891699339 0.85899308832 -0.094952640779 0.50310522779 0.84327780177 -0.16793254053 0.51056949661 
0.81698710778 -0.24620956944 0.52145269549 0.7782937463 -0.32776140655 0.53556634028 0.7255817948 -0.41058508457 0.55222363892 
0.65754647235 -0.49256423994 0.57009920736 0.57348364166 -0.57126966161 0.5871690442 0.47378394425 -0.64384214158 0.60082948571 
0.36048976569 -0.70715539696 0.60825847579 0.23763023894 -0.75832866733 0.60701688761 0.11096916461 -0.79548476363 0.59572630909 
-0.01294755747 -0.81841142824 0.57448681001 -0.12809465446 -0.82872210838 0.54480402584 -0.23002238259 -0.82942965984 0.50905416499 
-0.31625201482 -0.82418959193 0.46978311983 -0.38604325049 -0.81658417388 0.42913971585 -0.43983379769 -0.80967529177 0.38855135093 
-0.47865840074 -0.8058055457 0.34865965915 -0.50370976037 -0.80656296872 0.30940694045 -0.51607156858 -0.8128220042 0.27016758796 
-0.51660103436 -0.82477118949 0.22994750769 -0.50595349446 -0.84191543862 0.18758852749 -0.48468588853 -0.86308562876 0.14199572842 
-0.45345168234 -0.88647765671 0.092406363043 -0.41325365582 -0.90979602358 0.038634329552 -0.36565913388 -0.93055995183 -0.018750302936 
-0.3129034758 -0.94654470681 -0.078387070669 -0.25776847095 -0.95625544498 -0.13831463891 -0.20324321067 -0.95924757016 -0.19630663884 
-0.15207999969 -0.95615629594 -0.25027347327 -0.10642314476 -0.94843643853 -0.29856730621 -0.067635517382 -0.93796554558 -0.34006774633 
-0.036342117215 -0.92665866021 -0.37414299134 -0.012618519707 -0.91620798922 -0.40050429892 0.0037693859436 -0.90794723173 -0.41906755555 
0.013142904874 -0.90280900281 -0.42984086416 0.013142904874 -0.90280900281 -0.42984086416 
FrenetNormal 3 128 double
-0.52931767829 -0.30538068485 -0.79155886248 -0.52931767829 -0.30538068485 -0.79155886248 -0.51117450707 -0.35100345312 -0.78453629567 
-0.48030499507 -0.4197612444 -0.77013479951 -0.4351456113 -0.50566128332 -0.74495299416 -0.37505919045 -0.59966187364 -0.70692025078 
-0.30134816888 -0.69088081035 -0.65717043984 -0.21729278268 -0.7695626914 -0.60046407935 -0.12699345763 -0.82973169987 -0.54352365906 
-0.033986557161 -0.86963780306 -0.49251904067 0.059181906081 -0.89017754982 -0.45175372914 0.15064075901 -0.89325440431 -0.42356101202 
0.23854153299 -0.8807412796 -0.40913657309 0.32058804234 -0.85409826452 -0.40956008308 0.39413357041 -0.81436891934 -0.42598355824 
0.45627020874 -0.7618624808 -0.45976413188 0.50437281901 -0.69602639736 -0.51103357387 0.53698992257 -0.61590049542 -0.57646196994 
0.55544018846 -0.5218171328 -0.64745121589 0.56544922357 -0.41745812222 -0.71133388205 0.57611648444 -0.30924560496 -0.75660885018 
0.59587874813 -0.20304710042 -0.77698159086 0.62888675375 -0.10200693825 -0.77077625516 0.67425530518 -0.0072448488282 -0.7384627923 
0.72777600781 0.080101838628 -0.68112097156 0.78395312165 0.15776458591 -0.6004397043 0.83770522961 0.22232296365 -0.49882105821 
0.88499179294 0.27004933895 -0.379292606 0.92298567887 0.29722373081 -0.24444936174 0.94899224237 0.30035394921 -0.095923037453 
0.95899792623 0.2756261529 0.065978794573 0.94553304356 0.21914852576 0.24070975715 0.89674176223 0.12969323546 0.42312394939 
0.80114589313 0.015075661435 0.59827918429 0.65970003799 -0.10328400309 0.74439792758 0.49120025035 -0.19822488496 0.84819172894 
0.31785558401 -0.25171588719 0.91411538651 0.14949431933 -0.25751162628 0.95464088055 -0.017085854361 -0.21328919552 0.9768396965 
-0.18984421588 -0.11439149885 0.97512756021 -0.370968336 0.043771674375 0.92761335383 -0.54312850305 0.25065803579 0.80136257603 
-0.66673088709 0.46245702885 0.58446849415 -0.71291287197 0.62384536109 0.32026895327 -0.69224433471 0.71794922292 0.073121093862 
-0.63129929684 0.76560109033 -0.12375850798 -0.54641969536 0.79395879087 -0.26656135303 -0.44069588655 0.82221813309 -0.36020060689 
-0.30668931175 0.86078184922 -0.40619733396 -0.12577205425 0.90977046713 -0.39559965561 0.13149429097 0.94448844765 -0.30108275223 
0.46837750131 0.87930054609 -0.086331141031 0.76094968878 0.61741788745 0.19937583453 0.87715742479 0.26370810701 0.40131394997 
0.87779457575 -0.035991238882 0.47768327739 0.84253463599 -0.26763648529 0.46744635938 0.79754712499 -0.45521711324 0.39584840941 
0.74261513602 -0.6124059443 0.27107511716 0.66794178564 -0.73767541461 0.098431466868 0.56294568421 -0.81956911791 -0.10676430862 
0.42617365279 -0.84816797465 -0.31462216141 0.26904020536 -0.82776980747 -0.4923560843 0.10904313511 -0.77559938858 -0.62173562156 
-0.039235426012 -0.71033840199 -0.70276591836 -0.16634560507 -0.64501771298 -0.74584267082 -0.2649734347 -0.58698183207 -0.76501072393 
-0.32345674116 -0.53960502491 -0.77730441507 -0.29577940986 -0.49846517252 -0.81489079789 0.32668426557 -0.27572855529 -0.90401944361 
0.85977153829 0.45102736298 0.23951455026 0.76786650651 0.51331002365 0.38326733202 0.73116599006 0.56086981496 0.38835723974 
0.69815964056 0.61854863852 0.3605144908 0.65579216471 0.68504782558 0.3172477161 0.6001169355 0.7550270407 0.26418522203 
0.53126780407 0.82202487218 0.20501129208 0.45239605688 0.88025102277 0.14316404797 0.36850459398 0.92600621671 0.08195639592 
0.28531299916 0.95813961238 0.023769217582 0.20839516452 0.9775634917 -0.030676947322 0.14259618925 0.98635707178 -0.082256025688 
0.092720546165 0.98659510161 -0.13428702765 0.064946622508 0.97884727248 -0.19401018885 0.071731736659 0.95761627007 -0.27897246683 
0.15385061278 0.8818119463 -0.44580004521 0.4628972323 0.2977490824 -0.83490816037 0.38167940109 -0.81120030806 -0.44302922588 
0.21897729294 -0.96007881917 -0.17406207558 0.12111196015 -0.9904042117 -0.066568690458 0.033519300632 -0.99942884485 -0.0042942479605 
-0.057657781869 -0.99747505686 0.041461923944 -0.15589062976 -0.98450030492 0.080357085295 -0.26035419661 -0.95867701121 0.11469123979 
-0.3682555509 -0.91862627396 0.14322575895 -0.47592656996 -0.86430934238 0.16267532292 -0.57977393721 -0.79701788829 0.16918826048 
-0.6767238886 -0.71874482977 0.15953259316 -0.76414267728 -0.63138827715 0.13204094911 -0.83942786852 -0.53644986004 0.087076984348 
-0.89970925003 -0.43567151851 0.026713168443 -0.94232869639 -0.33160036479 -0.045363267483 -0.96561953871 -0.2280942149 -0.12470739993 
-0.96962156347 -0.13007546946 -0.20715790089 -0.95611952638 -0.042755446842 -0.2898403406 -0.92768992592 0.028815188234 -0.37223794308 
-0.88611006347 0.079776727887 -0.45655736672 -0.82990079649 0.10430970561 -0.54807312769 -0.75034457128 0.093571390977 -0.65439087642 
-0.62651948977 0.035268852185 -0.77860737025 -0.42732660205 -0.078636492426 -0.90067101499 -0.15292770812 -0.22291136792 -0.96276873554 
0.11936919933 -0.33531177314 -0.9345143172 0.31969275838 -0.38502403881 -0.86576730694 0.45000671185 -0.38525796725 -0.80564896696 
0.53522114073 -0.35373684542 -0.76707794566 0.59372613979 -0.3013692957 -0.74610040781 0.63494529049 -0.23466764069 -0.73605405814 
0.6631994971 -0.15866408516 -0.73143156558 0.68023538706 -0.07794391811 -0.72883781723 0.68740808361 0.0029811570793 -0.72626526785 
0.685790208 0.080261845337 -0.72336009483 0.67713078194 0.150755577 -0.7202545801 0.66376136534 0.21217139255 -0.71721973625 
0.64797218312 0.26317267082 -0.7147532408 0.63276335043 0.30282013587 -0.71267840409 0.620047001 0.33090855519 -0.71136576011 
0.6125069642 0.34705494272 -0.71020284817 0.6125069642 0.34705494272 -0.71020284817 
FrenetBinormal 3 128 double
0.15161228842 -0.95200459652 0.26589652538 0.15161228842 -0.95200459652 0.26589652538 0.17670023168 -0.93622637655 0.30373870344 
0.21364717374 -0.90758931475 0.36143674538 0.25815938759 -0.86272647999 0.43480656771 0.30430735301 -0.79997365647 0.51714522512 
0.34560887216 -0.72148387692 0.60001293556 0.37699018023 -0.63359491783 0.67560038788 0.39627720581 -0.54477084563 0.73904607563 
0.4042031695 -0.46266195702 0.78902706626 0.40331888861 -0.39264348597 0.82653794046 0.39694144048 -0.33774276028 0.85344438642 
0.38860321764 -0.29952907233 0.87136093214 0.38202526611 -0.27907013379 0.88100882883 0.38111652275 -0.27694722535 0.88207166968 
0.38991877542 -0.29325779182 0.87290504415 0.41173952672 -0.32635071429 0.85086178279 0.44746433498 -0.37133422296 0.81356411166 
0.49374300849 -0.41954342211 0.76170936619 0.54293685677 -0.46083216556 0.70203510222 0.58634154024 -0.48855823904 0.64615357714 
0.61772560154 -0.50235681959 0.60502289792 0.63405199658 -0.50646168168 0.58435830672 0.63427711265 -0.50648094455 0.58409724976 
0.61796206703 -0.50731387028 0.60062927062 0.5847440554 -0.51253802736 0.6287918258 0.53405344195 -0.52445155954 0.66312704879 