# vtk DataFile Version 4.2
vtk output
ASCII
DATASET POLYDATA
POINTS 128 float
0 0 0 -0.359141 0.0600334 0.0754568 -1.00359 0.160897 0.210848 
-1.51895 0.21969 0.319739 -1.96353 0.225824 0.416322 -2.43546 0.178565 0.523236 
-2.9286 0.0849153 0.64073 -3.40393 -0.0478886 0.762261 -3.85509 -0.224576 0.889427 
-4.28345 -0.450743 1.02553 -4.6851 -0.720539 1.17145 -5.05601 -1.02461 1.32742 
-5.39967 -1.35331 1.49402 -5.72175 -1.69752 1.67184 -6.02664 -2.0514 1.86072 
-6.31842 -2.41037 2.06018 -6.60185 -2.77062 2.26911 -6.88176 -3.12883 2.48607 
-7.16184 -3.48329 2.70889 -7.4453 -3.83294 2.93502 -7.7348 -4.17755 3.16124 
-8.03277 -4.51722 3.38397 -8.3412 -4.85261 3.59882 -8.66187 -5.18456 3.8009 
-8.99609 -5.51415 3.98404 -9.34474 -5.8425 4.1413 -9.70707 -6.17069 4.2641 
-10.0812 -6.49953 4.3434 -10.4625 -6.82852 4.37163 -10.8448 -7.15646 4.34255 
-11.2205 -7.48183 4.25498 -11.5816 -7.80303 4.11067 -11.923 -8.11934 3.91595 
-12.2414 -8.43059 3.67935 -12.5356 -8.73755 3.4085 -12.8054 -9.04146 3.11042 
-13.0514 -9.34362 2.79082 -13.2747 -9.64526 2.45455 -13.4758 -9.94745 2.10512 
-13.6551 -10.2511 1.74524 -13.8125 -10.5568 1.37698 -13.9476 -10.8651 1.00201 
-14.0595 -11.1761 0.621668 -14.1468 -11.4897 0.237051 -14.2079 -11.8054 -0.150862 
-14.2408 -12.1225 -0.541174 -14.2432 -12.4396 -0.932882 -14.2129 -12.7549 -1.3249 
-14.1482 -13.0663 -1.71591 -14.0483 -13.3714 -2.10445 -13.913 -13.6679 -2.48896 
-13.7433 -13.9537 -2.86786 -13.5411 -14.2271 -3.23989 -13.3093 -14.4871 -3.60408 
-13.0513 -14.7338 -3.95978 -12.7706 -14.9679 -4.30665 -12.4705 -15.1906 -4.64459 
-12.1543 -15.4038 -4.97372 -11.8244 -15.6095 -5.29421 -11.4833 -15.8099 -5.60615 
-11.1325 -16.0081 -5.90864 -10.7736 -16.2077 -6.19994 -10.4075 -16.4112 -6.4797 
-10.0352 -16.6201 -6.7486 -9.65825 -16.8396 -7.00133 -9.27862 -17.0781 -7.22677 
-8.89632 -17.3459 -7.4145 -8.51017 -17.6541 -7.55395 -8.14394 -18.0059 -7.60904 
-7.84739 -18.3951 -7.51799 -7.6488 -18.7968 -7.27238 -7.5482 -19.1648 -6.92987 
-7.53174 -19.4785 -6.53418 -7.57218 -19.7475 -6.10884 -7.64759 -19.9825 -5.66945 
-7.7443 -20.1941 -5.22227 -7.8536 -20.3892 -4.77084 -7.97278 -20.5696 -4.31587 
-8.09968 -20.7366 -3.85787 -8.23229 -20.8917 -3.39728 -8.36867 -21.0364 -2.93444 
-8.50696 -21.1722 -2.46948 -8.64581 -21.3003 -2.00254 -8.78467 -21.4213 -1.53369 
-8.92306 -21.5358 -1.06309 -9.06054 -21.6448 -0.590904 -9.19678 -21.7492 -0.117344 
-9.33167 -21.8503 0.357343 -9.46515 -21.9491 0.832886 -9.59731 -22.047 1.30898 
-9.72823 -22.1456 1.78529 -9.85805 -22.2464 2.26143 -9.98684 -22.3512 2.73701 
-10.1146 -22.4614 3.21162 -10.2412 -22.5788 3.68485 -10.3664 -22.7047 4.15624 
-10.4898 -22.8406 4.62536 -10.6108 -22.9875 5.09179 -10.7284 -23.1462 5.55517 
-10.8417 -23.3175 6.01518 -10.9493 -23.5016 6.4716 -11.0499 -23.6983 6.92431 
-11.1422 -23.9074 7.37326 -11.2249 -24.128 7.81853 -11.2967 -24.3593 8.26028 
-11.3569 -24.5999 8.6988 -11.4048 -24.8483 9.1344 -11.4405 -25.1032 9.56746 
-11.4643 -25.3631 9.99831 -11.4771 -25.627 10.4272 -11.4799 -25.894 10.8544 
-11.4741 -26.1636 11.2798 -11.4613 -26.4358 11.7035 -11.4428 -26.7115 12.1247 
-11.4201 -26.9917 12.5427 -11.3944 -27.2768 12.9571 -11.3667 -27.5679 13.367 
-11.3376 -27.8686 13.7705 -11.3076 -28.1821 14.1649 -11.2774 -28.5093 14.5453 
-11.2471 -28.8513 14.9095 -11.2165 -29.2119 15.2653 -11.1856 -29.5901 15.6138 
-11.1565 -29.9655 15.9215 -11.1291 -30.3439 16.1731 -11.0972 -30.8116 16.4203 
-11.0571 -31.4142 16.7014 -11.0348 -31.7526 16.8535 
LINES 1 129
128 0 1 2 3 4 5 6 7 8 9 10 11 12 13 14 15 16 17 18 19 20 21 22 23 24 25 26 27 28 29 30 31 32 33 34 35 36 37 38 39 40 41 42 43 44 45 46 47 48 49 50 51 52 53 54 55 56 57 58 59 60 61 62 63 64 65 66 67 68 69 70 71 72 73 74 75 76 77 78 79 80 81 82 83 84 85 86 87 88 89 90 91 92 93 94 95 96 97 98 99 100 101 102 103 104 105 106 107 108 109 110 111 112 113 114 115 116 117 118 119 120 121 122 123 124 125 126 127 

CELL_DATA 1
FIELD FieldData 2
Length 1 1 double
61.021695123 
Tortuosity 1 1 double
0.62275968166 
POINT_DATA 128
SCALARS MaximumInscribedSphereRadius float
LOOKUP_TABLE default
0.62 0.676931 0.731562 0.778853 0.826144 0.911896 1.00438 1.16238 1.32214 
1.41011 1.4933 1.48957 1.47764 1.40629 1.32853 1.31094 1.30111 1.31647 
1.33553 1.40247 1.47737 1.60693 1.74668 1.79685 1.82848 1.78701 1.7288 
1.67145 1.61432 1.64238 1.69439 1.76 1.82986 1.9036 1.97865 2.03321 
2.08013 2.03383 1.95 1.8442 1.72889 1.67813 1.65733 1.71722 1.81723 
1.89599 1.96344 1.96167 1.92052 1.85852 1.78382 1.72221 1.66912 1.63641 
1.61785 1.60266 1.58997 1.57952 1.57081 1.56357 1.55753 1.57798 1.6218 
1.67175 1.72753 1.7808 1.83168 1.85503 1.84801 1.78187 1.6354 1.54543 
1.52193 1.57619 1.75503 1.89965 1.98829 2.03856 2.0221 1.99852 1.96167 
1.94359 1.96269 1.99706 2.0637 2.12803 2.18715 2.24197 2.28636 2.32284 
2.33882 2.32156 2.21164 2.10446 2.00554 1.91811 1.86802 1.83143 1.8425 
1.88036 2.02123 2.16757 2.33699 2.49857 2.62386 2.71909 2.65984 2.59936 
2.53176 2.46383 2.39374 2.32345 2.2517 2.18033 2.11216 2.04612 2.00202 
1.96079 1.95191 1.94743 2.01502 2.08004 2.03793 1.9901 1.909 1.8279 
1.69673 1.55 
TEXTURE_COORDINATES TCoords 2 float
0 0 0.00787402 0 0.015748 0 0.023622 0 0.0314961 
0 0.0393701 0 0.0472441 0 0.0551181 0 0.0629921 0 
0.0708661 0 0.0787402 0 0.0866142 0 0.0944882 0 0.102362 
0 0.110236 0 0.11811 0 0.125984 0 0.133858 0 
0.141732 0 0.149606 0 0.15748 0 0.165354 0 0.173228 
0 0.181102 0 0.188976 0 0.19685 0 0.204724 0 
0.212598 0 0.220472 0 0.228346 0 0.23622 0 0.244094 
0 0.251969 0 0.259843 0 0.267717 0 0.275591 0 
0.283465 0 0.291339 0 0.299213 0 0.307087 0 0.314961 
0 0.322835 0 0.330709 0 0.338583 0 0.346457 0 
0.354331 0 0.362205 0 0.370079 0 0.377953 0 0.385827 
0 0.393701 0 0.401575 0 0.409449 0 0.417323 0 
0.425197 0 0.433071 0 0.440945 0 0.448819 0 0.456693 
0 0.464567 0 0.472441 0 0.480315 0 0.488189 0 
0.496063 0 0.503937 0 0.511811 0 0.519685 0 0.527559 
0 0.535433 0 0.543307 0 0.551181 0 0.559055 0 
0.566929 0 0.574803 0 0.582677 0 0.590551 0 0.598425 
0 0.606299 0 0.614173 0 0.622047 0 0.629921 0 
0.637795 0 0.645669 0 0.653543 0 0.661417 0 0.669291 
0 0.677165 0 0.685039 0 0.692913 0 0.700787 0 
0.708661 0 0.716535 0 0.724409 0 0.732283 0 0.740157 
0 0.748031 0 0.755906 0 0.76378 0 0.771654 0 
0.779528 0 0.787402 0 0.795276 0 0.80315 0 0.811024 
0 0.818898 0 0.826772 0 0.834646 0 0.84252 0 
0.850394 0 0.858268 0 0.866142 0 0.874016 0 0.88189 
0 0.889764 0 0.897638 0 0.905512 0 0.913386 0 
0.92126 0 0.929134 0 0.937008 0 0.944882 0 0.952756 
0 0.96063 0 0.968504 0 0.976378 0 0.984252 0 
0.992126 0 1 0 
FIELD FieldData 7
Curvature 1 128 double
0 0.0316877408 0.05915760532 0.084674221271 0.10717448062 0.12550056777 0.13857346704 0.14564906907 0.14651669453 
0.14159219794 0.13180049443 0.11835955289 0.10252594171 0.085404284117 0.067843431237 0.050465735699 0.03381143727 0.019222444331 
0.014076085084 0.024924794936 0.040721148666 0.057898379991 0.075840224635 0.094223351983 0.11261641842 0.13038292698 0.14664090204 
0.16039483981 0.17065357805 0.17668677748 0.17820893898 0.17548720143 0.16930293528 0.16074487688 0.15102298401 0.14125412948 
0.13233487979 0.12488971582 0.11928957337 0.11567402553 0.11391621849 0.11382124915 0.11507663883 0.11725516766 0.12000844764 
0.12286266676 0.12540977493 0.12719704231 0.1279027885 0.1271950638 0.12492286107 0.12103747584 0.1156576971 0.10905248177 
0.10160844904 0.093926499664 0.086840801485 0.081546576876 0.079712376163 0.083289588095 0.093909563565 0.11264709835 0.14029156117 
0.17794375186 0.22698252108 0.28810923648 0.35923509111 0.43203160049 0.49016461476 0.51437292771 0.49512291314 0.44049354092 
0.36935421656 0.29850759498 0.23681748416 0.18667350878 0.14715502358 0.11636846994 0.092401305393 0.073613464941 0.058855254186 
0.047085143428 0.037595076048 0.029727020768 0.023015665955 0.017062018219 0.011583856019 0.0066491921006 0.0035359336985 0.0062018226953 
0.010997547907 0.016113706067 0.021184921483 0.026133487928 0.030804444361 0.035139195074 0.0390947102 0.042504290308 0.045387566206 
0.04766973463 0.049398389817 0.050479526507 0.050991164804 0.050944235431 0.050347628015 0.049257675792 0.047798680953 0.046019041326 
0.044107867693 0.04222161345 0.040711669907 0.039905400102 0.040210319532 0.041889883957 0.045128335544 0.049706140878 0.055251942934 
0.061169957128 0.066722752102 0.07103749861 0.073199462974 0.072380958649 0.067971484704 0.059690638998 0.047807009794 0.032906616657 
0.015926513911 0 
Torsion 1 128 double
0 0 0.01884626415 0.025838840112 0.033097064384 0.040416905515 0.047724147202 0.054882143219 0.061711081722 
0.067944256375 0.07299429408 0.075825870454 0.074453885253 0.06467742379 0.036713633028 -0.036747516523 -0.25494896789 -1.1049932434 
-2.1931207632 -0.59018573084 -0.12410611196 0.012215688154 0.063455475316 0.084928932163 0.093760283634 0.097188733189 0.098585634281 
0.099535922896 0.10101524029 0.10369802691 0.10790579057 0.1139087843 0.12156141955 0.13043986216 0.13993797884 0.14873317476 
0.15473935587 0.15573221924 0.15036781169 0.13756785331 0.11858566428 0.095956221978 0.072173460329 0.050067371191 0.031159831712 
0.016286789497 0.0056467896983 -0.00059022943904 -0.002915221442 -0.0012727857228 0.0047174675911 0.015695018126 0.033358084674 0.060054842221 
0.099477437096 0.1557805489 0.23207824892 0.32273274289 0.40195951846 0.42872276748 0.38675080703 0.30535104404 0.22216290436 
0.15508101906 0.10539926284 0.069858799747 0.044620217198 0.0263175587 0.012875235093 0.0023378950627 -0.0064889926978 -0.014582724974 
-0.022969868811 -0.031829202687 -0.041537140765 -0.05246131933 -0.064852018039 -0.079178779917 -0.09475598012 -0.11080085838 -0.12717054302 
-0.14204484375 -0.15470366618 -0.16761760627 -0.18709980693 -0.2316751719 -0.36482407929 -0.91529757892 -3.0470040493 -0.99212722672 
-0.30908346626 -0.12890302664 -0.053980781492 -0.011775270303 0.017250519338 0.038693596952 0.055095121801 0.069575487017 0.081529288049 
0.089779063211 0.095826868296 0.099250118674 0.098152231727 0.093346714192 0.083657043762 0.067020662423 0.043313881088 0.011810822535 
-0.029671999823 -0.080364219405 -0.13640582107 -0.18909541835 -0.22424453307 -0.23175983698 -0.21122169533 -0.17449804714 -0.13389979735 
-0.097810403678 -0.069445570012 -0.048053483409 -0.032998038918 -0.022436698391 -0.014910648653 -0.0099677180931 -0.0063951447852 -0.0040734871356 
0 0 
Abscissas 1 128 double
0 0.50371141786 1.0074229066 1.5111346213 2.014846336 2.5185562978 3.0222659527 3.5259788893 4.0296919141 
4.533402794 5.0371135311 5.5408259093 6.0445384424 6.5482498753 7.0519611891 7.5556755402 8.0593902827 8.5631011255 
9.0668113936 9.5705201599 10.074228676 10.577940971 11.08165397 11.585365625 12.089077002 12.592788725 13.096500528 
13.600207479 14.103913188 14.607633053 15.111356901 15.615067174 16.118773204 16.622473873 17.12617271 17.629892529 
18.133620178 18.637327219 19.141025961 19.64473496 20.1484484 20.652169706 21.155894663 21.659601521 22.163299381 
22.667014132 23.170737865 23.674444219 24.178140687 24.681845055 25.185554234 25.689265238 26.192977428 26.696695769 
27.200418379 27.704126347 28.207823503 28.711522757 29.21522366 29.71894155 30.222673584 30.726395201 31.230107634 
31.7338232 32.237541729 32.741253505 33.244958771 33.748659843 34.252356284 34.756064223 35.259787789 35.763503374 
36.267209571 36.770917768 37.274629168 37.778340932 38.282053293 38.785766483 39.289481116 39.793194048 40.296903814 
40.800612927 41.304320749 41.808030913 42.311746029 42.815459924 43.319171059 43.822882755 44.326595808 44.830309201 
45.334023477 45.837734414 46.341436039 46.845143174 47.34886687 47.852587044 48.356295776 48.860004601 49.36371375 
49.867422162 50.371127736 50.874834552 51.378546598 51.882261704 52.385991002 52.889716883 53.393425208 53.897132878 
54.400836795 54.904540027 55.408238822 55.911938415 56.415643875 56.919352772 57.423090822 57.926823805 58.430504923 
58.934188644 59.437901624 59.941616152 60.445356069 60.949095696 61.452823247 61.956545074 62.460233603 62.963922132 
63.467645547 63.971379803 
ParallelTransportNormals 3 128 double
0.20560462561 0 0.97863514035 0.2076811914 -0.0002415121203 0.97819476045 0.21106652004 -0.00035149078252 0.97745586571 
0.2186268445 -4.187346344e-05 0.97576469901 0.22618716896 0.00026774385564 0.97407353231 0.24116614888 0.003698034669 0.9703429417 
0.25744364936 0.0076745509682 0.96625538157 0.28164546731 0.018860265303 0.95891203996 0.3060601757 0.030239658065 0.95148123028 
0.33254768731 0.049474566536 0.94113308466 0.35917320047 0.069232473634 0.93059071084 0.38185384103 0.091384816545 0.91907562364 
0.40416187355 0.11376332292 0.90746866 0.42108454092 0.13343851714 0.89672842943 0.43742454145 0.15282122787 0.88608197459 
0.44767103703 0.16561632799 0.87856654542 0.45713232411 0.17756254921 0.87145457993 0.4598442225 0.18094888003 0.86936272016 
0.46156159199 0.18307390278 0.86801057779 0.45489003582 0.1753997658 0.87299676715 0.4468235995 0.16609626006 0.87903687133 
0.42722351065 0.14536703393 0.89172523374 0.40547412063 0.12250861984 0.90565250196 0.36707798481 0.085402976818 0.92427544104 
0.32523637243 0.045348499594 0.94387027122 0.2629219556 -0.01071455213 0.96052847581 0.19592014623 -0.070442879567 0.97651431932 
0.11544110115 -0.14048057494 0.97722080497 0.031511772159 -0.21315755385 0.9740156485 -0.047547545856 -0.28304676152 0.95208256631 
-0.1252370351 -0.35215182942 0.92488172359 -0.18470470496 -0.40826977011 0.89024777604 -0.23847526114 -0.46032724139 0.85328984302 
-0.27590256478 -0.4998746123 0.81902893509 -0.30774846738 -0.53514964592 0.78568909098 -0.32930757406 -0.56181039209 0.75795763661 
-0.34702839525 -0.58525691152 0.73231882616 -0.35932770843 -0.60391730415 0.71095313155 -0.36944357164 -0.62065013926 0.69130838517 
-0.3767778119 -0.63520290812 0.67387035895 -0.38290782095 -0.64881187409 0.65738767473 -0.38746594608 -0.66216684526 0.64108758854 
-0.39129424687 -0.67540388687 0.62487228246 -0.39371384065 -0.6899036053 0.6070432322 -0.39543315986 -0.70503100604 0.5884119825 
-0.39499967818 -0.72238127495 0.56688583599 -0.3934213282 -0.74091367425 0.54382017153 -0.38861440243 -0.76110563346 0.51829415866 
-0.38197066473 -0.78224175494 0.49136839631 -0.37184078524 -0.80343837384 0.46369720248 -0.35958865677 -0.82467182157 0.43557221438 
-0.34517406076 -0.84406069826 0.40910794757 -0.32935382271 -0.86225057123 0.38372317889 -0.31383681921 -0.87739470916 0.36198771885 
-0.29853033406 -0.89042436786 0.34278576458 -0.28543804501 -0.90047639695 0.32770013674 -0.27398083428 -0.90832958846 0.31565421981 
-0.26634538473 -0.91333182575 0.30797186433 -0.26171221111 -0.91609442775 0.30371740895 -0.26239178721 -0.9157850704 0.30405094074 
-0.26749487749 -0.91291793103 0.30820453319 -0.2780706859 -0.90690060464 0.3160118997 -0.29347139285 -0.8981059869 0.32704053371 
-0.32564315925 -0.87790225079 0.3466309864 -0.37367624074 -0.84690828273 0.37431882282 -0.44834575096 -0.7886877242 0.40356811818 
-0.5486909638 -0.70422258734 0.43432255358 -0.67330671851 -0.56199555122 0.42364223399 -0.82471868191 -0.35599573597 0.3672153321 
-0.93008117385 -0.17567655353 0.27877249639 -0.97285529455 -0.030261332629 0.14681504285 -0.99326038641 0.072137940132 0.03895529506 
-0.98735459678 0.12394102824 -0.040560268257 -0.98102019326 0.16197627072 -0.10236076437 -0.97399913707 0.17795499933 -0.13578117573 
-0.96779507556 0.19065539752 -0.16358506987 -0.96292717165 0.19799423568 -0.182203406 -0.95868924303 0.20399476883 -0.19802654852 
-0.95554640913 0.20766890792 -0.20899076745 -0.95305670025 0.21049604096 -0.21762750093 -0.95178335225 0.2117457348 -0.22192959383 
-0.95080712005 0.2126890831 -0.22522889403 -0.9504193793 0.21302565877 -0.22654198233 -0.95021664883 0.2132061913 -0.2272249534 
-0.9504051578 0.21305674094 -0.22657542183 -0.95069405335 0.21283410488 -0.22556708319 -0.95120981744 0.21244607291 -0.22374785893 
-0.95177432375 0.2120218786 -0.2217407074 -0.95245672778 0.21151021482 -0.21927899744 -0.95318289609 0.21095589326 -0.21664448587 
-0.9540225985 0.21029090811 -0.21356168924 -0.95493273008 0.20954269795 -0.21020584354 -0.95603923056 0.20856244178 -0.20608868888 
-0.9572656187 0.20741566185 -0.2015021823 -0.95885238463 0.20576831775 -0.19550482139 -0.96060549978 0.20382843904 -0.18881724455 
-0.96289914357 0.2009380098 -0.17988690713 -0.96537231022 0.19760257454 -0.17009035244 -0.96847852202 0.19269793023 -0.15723928632 
-0.97170571564 0.18723767673 -0.14350598831 -0.97539797316 0.17964161679 -0.1263813199 -0.97908269116 0.17151003927 -0.10858154212 
-0.98273565932 0.161123327 -0.087938790221 -0.98624518118 0.15038852313 -0.067003576504 -0.98908944992 0.13803939383 -0.044712028515 
-0.9917227079 0.12566943051 -0.022618354657 -0.99327168935 0.11319241181 -0.0015414549419 -0.99464975791 0.10096515779 0.019000233243 
-0.99504741681 0.090170631929 0.036471781138 -0.99536116825 0.079740299232 0.05329961137 -0.99513201195 0.071666411285 0.065962385105 
-0.99488536131 0.063917044831 0.078078832206 -0.99451004551 0.058554428645 0.086177224203 -0.99414213707 0.053401597121 0.093929218519 
-0.99383705773 0.050028154874 0.098743074679 -0.99353439974 0.046694773961 0.10346534134 -0.99325652653 0.043771459731 0.10725010049 
-0.99297863151 0.040835386848 0.11100680712 -0.99270049134 0.037755929201 0.1144482529 -0.99242484289 0.034691346157 0.11784613955 
-0.99219003971 0.031870593844 0.12052998649 -0.99194340798 0.028883618089 0.12331866776 -0.99120366433 0.018967074495 0.13047771087 
-0.99052633671 0.0098275633184 0.13693820643 -0.99021205844 0.0052077418102 0.13933552773 -0.98989778017 0.00058792030192 0.14173284903 
-0.98982326419 -0.00050744821309 0.1423012585 -0.98982326419 -0.00050744821309 0.1423012585 
FrenetTangent 3 128 double
-0.97248578081 -0.043450478232 0.22887433684 -0.97248578081 -0.043450478232 0.22887433684 -0.97031800638 -0.065160977562 0.23288841426 
-0.96586993389 -0.099244053761 0.23926113056 -0.95803236461 -0.14412376193 0.24779493459 -0.94566429266 -0.19760115552 0.25821082262 
-0.92790331629 -0.25692465504 0.27015765257 -0.90444601962 -0.31898981976 0.28323646038 -0.87571329834 -0.38065441994 0.29703271147 
-0.84284275886 -0.43909508381 0.31114561095 -0.80751256786 -0.49210372392 0.32520359416 -0.77166660619 -0.53824514473 0.33885515056 
-0.73723001477 -0.57686113 0.35174300564 -0.70588821826 -0.60795664637 0.36347013559 -0.67896001754 -0.6320294734 0.37356664644 
-0.65735415056 -0.64989881556 0.38146697142 -0.64158419808 -0.66256106186 0.38650039597 -0.63181160188 -0.67108052265 0.38789822357 
-0.62789673838 -0.67651081318 0.38481009029 -0.6294430842 -0.67983594203 0.37633030131 -0.63582755905 -0.6819194989 0.36153715184 
-0.64621341638 -0.68346395415 0.33953680783 -0.65955319585 -0.68497035942 0.30952413244 -0.67458348104 -0.68670913612 0.27086470696 
-0.68982845852 -0.68870822883 0.22319873066 -0.7036408172 -0.6907574003 0.16656474506 -0.71427960549 -0.69245665418 0.10153042529 
-0.72005041006 -0.69330346354 0.029286761756 -0.71950082177 -0.69280727565 -0.048338869201 -0.711624848 -0.69061621745 -0.1289934723 
-0.69601268784 -0.68662158535 -0.21004079815 -0.67289273559 -0.6809994396 -0.28888601498 -0.64303719377 -0.67418102145 -0.36329480831 
-0.60757075071 -0.66675677122 -0.4316169493 -0.56774056573 -0.65935548599 -0.49287015849 -0.52470538239 -0.65253980862 -0.54669558244 
-0.47939878365 -0.64673074851 -0.59322520611 -0.43247260199 -0.6421654169 -0.63292260654 -0.38429538043 -0.63889008298 -0.66643568515 
-0.33498291308 -0.63678363074 -0.69447322163 -0.28447947366 -0.63557338025 -0.71771714998 -0.23262945682 -0.63487014277 -0.73676552419 
-0.17923882334 -0.63420476454 -0.75210222766 -0.12416686519 -0.63305572161 -0.76408313875 -0.067374974588 -0.63089255454 -0.77293932325 
-0.0089748502836 -0.62721331619 -0.77879580639 0.050730993526 -0.62158828749 -0.78169966557 0.11124320715 -0.61370562661 -0.78165871883 
0.17189094264 -0.60341992859 -0.77867701496 0.23187448478 -0.59077888291 -0.77279656755 0.29032853276 -0.57604470008 -0.76412161766 
0.34640943046 -0.55969366038 -0.75282369319 0.39937107127 -0.54239270644 -0.73912982583 0.44863450004 -0.52496633482 -0.72328240175 
0.49382111352 -0.50835396661 -0.70549057575 0.53476561051 -0.49356962301 -0.68586789475 0.57150376376 -0.48166122255 -0.66436880925 
0.60422585606 -0.47369037846 -0.64072501139 0.63321537227 -0.4707084098 -0.6143874065 0.65877262393 -0.47372625103 -0.58446733787 
0.68110222084 -0.48368536997 -0.54968011393 0.70017595031 -0.50140707337 -0.50827609169 0.71554971843 -0.52749582158 -0.45797025959 
0.72611833691 -0.5621519407 -0.39590069002 0.72979751086 -0.60483855755 -0.31869407343 0.72320868829 -0.65369185027 -0.22283661742 
0.7015820149 -0.70471083413 -0.10566606187 0.65939865507 -0.75108235876 0.032691039279 0.59248433914 -0.78362084269 0.18681724431 
0.50127353541 -0.79356753895 0.34492811399 0.39285900679 -0.77700502427 0.49185871248 0.27892486186 -0.73724685807 0.61536005045 
0.17070816408 -0.68261976205 0.71055540472 0.075323330917 -0.62201390531 0.7793748119 -0.0045947279723 -0.56200589329 0.82712046546 
-0.069372414002 -0.50635154423 0.85953218778 -0.12071519623 -0.45668474853 0.88140052295 -0.16071862608 -0.41336835497 0.8962678876 
-0.19139770042 -0.37610683031 0.9065928372 -0.21452274146 -0.34434295607 0.91400652186 -0.23159821811 -0.31744350298 0.9195607037 
-0.24387027234 -0.29480311567 0.92391472185 -0.25236787722 -0.27590907873 0.92746139263 -0.25793763105 -0.26035250257 0.9304218145 
-0.26126333604 -0.24783259713 0.93290968107 -0.26288991049 -0.23814210364 0.93497445604 -0.26324139218 -0.2311652941 0.93662509909 
-0.26264096967 -0.22683417718 0.93785178846 -0.26131471913 -0.22512562433 0.93863361906 -0.25940185925 -0.22604446494 0.93894332911 
-0.25697740101 -0.22957270866 0.93875395435 -0.25404248605 -0.23567513599 0.93804032192 -0.25053939017 -0.24427782629 0.9367808482 
-0.24636843517 -0.25525984764 0.93495722059 -0.24139246591 -0.26844622429 0.93255900728 -0.23545003746 -0.28359996883 0.92958826237 
-0.22836864807 -0.30044606701 0.92605611137 -0.2199996593 -0.31864881583 0.92198865616 -0.21021765802 -0.33782487471 0.91743277154 
-0.19893847148 -0.35757313426 0.91244996477 -0.18614734055 -0.37749811962 0.90710767679 -0.17189896417 -0.39721148681 0.90148420999 
-0.15632358009 -0.41635610207 0.89566206494 -0.1396279614 -0.43464990058 0.88970978208 -0.12208701074 -0.45187890903 0.88368558514 
-0.10403246738 -0.46791967417 0.87762658589 -0.085828134269 -0.4827712231 0.87153053734 -0.067847637588 -0.49653953473 0.86535841622 
-0.050449600898 -0.50943060253 0.85903160534 -0.033964623141 -0.52174915762 0.85242256006 -0.01866800081 -0.53388103014 0.84535350677 
-0.0047614428998 -0.54627064589 0.83759519465 0.007623487215 -0.55938575019 0.8288724057 0.018428704954 -0.573677031 0.81887425588 
0.027666374949 -0.58954914779 0.80725855464 0.035407215292 -0.60731013323 0.79367545709 0.041759578759 -0.62711204142 0.77780886154 
0.046864964277 -0.64891012131 0.75942039055 0.05088006999 -0.67241545683 0.73842309816 0.053958260341 -0.697071316 0.71496859131 
0.056251780028 -0.72206203537 0.68953763808 0.057898292486 -0.74637954564 0.66299725608 0.059026144447 -0.76893111787 0.63660101339 
0.059757079974 -0.78866334813 0.61191438511 0.060196840874 -0.80469149381 0.59063350747 0.060438230157 -0.81636769739 0.57436138711 
0.060550335152 -0.82328126928 0.56439490481 0.060550335152 -0.82328126928 0.56439490481 
FrenetNormal 3 128 double
0.086005378657 -0.98001197757 0.17938672936 0.086005378657 -0.98001197757 0.17938672936 0.10898541366 -0.97750310884 0.18058198087 
0.14507036002 -0.97249159883 0.18224895294 0.19267916504 -0.9637832727 0.18438151379 0.24961675072 -0.95009554991 0.18710938992 
0.31311686807 -0.93038319203 0.19064349692 0.38005159552 -0.90409444502 0.19538172694 0.44720638795 -0.87137625677 0.20176685982 
0.51163861185 -0.83306456228 0.21030778857 0.57093984988 -0.79058177225 0.22137784261 0.62337201512 -0.7457876462 0.23496407714 
0.66788203663 -0.70089140593 0.25036937162 0.70401498613 -0.65869167256 0.26549610132 0.73181181088 -0.62340962495 0.27533963206 
0.75148035272 -0.60310734094 0.26746740882 0.76014541791 -0.61666226555 0.20471100089 0.70773539536 -0.70353759246 -0.06438529461 
0.15085093371 -0.59083421243 -0.7925647792 -0.33364142214 -0.20093878328 -0.92103583362 -0.42577995202 -0.080799777595 -0.90121186654 
-0.42386463646 -0.048544072608 -0.90442370766 -0.38914421259 -0.041141408981 -0.92025766298 -0.33711194997 -0.039857832639 -0.94062047945 
-0.27367203769 -0.037358247575 -0.96109727766 -0.20160580472 -0.030700208153 -0.97898549362 -0.12251865428 -0.019112033719 -0.99228217233 
-0.037786051576 -0.002968188898 -0.99928144392 0.051106413863 0.016596141583 -0.99855530771 0.1425268102 0.03787550524 -0.98906600107 
0.2347892444 0.058808368546 -0.97026572984 0.32622116776 0.077320411659 -0.94212594893 0.41549788162 0.091368435559 -0.90499354658 
0.50139408097 0.099487331364 -0.85948021877 0.58301374808 0.10063488479 -0.80620567444 0.65943936874 0.094563965399 -0.74578641407 
0.72961157312 0.08193075751 -0.67893615557 0.79214972836 0.064674363753 -0.60689046337 0.84586195743 0.045574774445 -0.53145130437 
0.89009550577 0.027894453076 -0.45491965235 0.92480816994 0.015314626743 -0.38012538855 0.95100363038 0.010142080718 -0.30901332205 
0.96994261218 0.013968247506 -0.24293253618 0.98291435121 0.026973996328 -0.1820763074 0.99087010757 0.048363363299 -0.12584679186 
0.99434816554 0.076796388645 -0.073307846601 0.99359748531 0.11052700101 -0.023405538584 0.98872197217 0.14770437119 0.024744302118 
0.9798742727 0.18616212386 0.072042163621 0.96727287102 0.22418655002 0.11884268497 0.9514025421 0.25944073579 0.16590270494 
0.93288579462 0.28989681522 0.21373799551 0.91253484574 0.31276067208 0.26355439155 0.89108665046 0.32477766658 0.31699219021 
0.86885308324 0.32124492016 0.37669088259 0.84482392568 0.29570481818 0.44590491711 0.81508259803 0.23947411171 0.52753436685 
0.77071215927 0.14331065569 0.62085813477 0.69852552252 0.0057032408657 0.71556241338 0.59094569755 -0.15497456381 0.79168558602 
0.45904239376 -0.30278394129 0.83522569742 0.32544328595 -0.40950580323 0.85228614019 0.20388888314 -0.46934056912 0.85915583773 
0.094774262367 -0.48846987838 0.86741859394 -0.0083321968387 -0.473990759 0.88049039454 -0.11184095375 -0.42925125883 0.89623376295 
-0.22013535238 -0.35537076827 0.90843384112 -0.33320042625 -0.2529939789 0.90827942979 -0.44571759967 -0.12570347181 0.88630381841 
-0.54798952737 0.017355176307 0.83630513316 -0.6296301663 0.16255768063 0.75969787031 -0.68504126978 0.29631660039 0.66551854296 
-0.71472143741 0.41061924118 0.5661846922 -0.72340288174 0.50385457917 0.47203689871 -0.71667721704 0.57868831519 0.38922178824 
-0.69892180629 0.63946542531 0.32030029428 -0.67289685757 0.69042089991 0.26557258902 -0.63982184853 0.73506663782 0.22428785101 
-0.59968116392 0.77603161413 0.19533928307 -0.55265004151 0.81437940225 0.17709918353 -0.49792597028 0.85073627321 0.16827810779 
-0.43539313369 0.88455448245 0.16732061051 -0.36572563806 0.91458566082 0.17256252977 -0.28912326783 0.93967841882 0.18279005771 
-0.20449391342 0.95875136311 0.19742862791 -0.10481438179 0.97037419157 0.21768755984 0.03298420162 0.96814337349 0.2482145258 
0.30111613653 0.90416400641 0.303012412 0.92457972093 0.22092964465 0.31039077267 0.6990534383 -0.71475941878 0.021053827871 
0.48242501969 -0.87216295498 -0.081227337442 0.39527683974 -0.91046473582 -0.12169710269 0.35741823308 -0.92262056122 -0.14499485049 
0.34576733488 -0.9243603118 -0.16125434598 0.35024068186 -0.92030701972 -0.1742597321 0.36715974325 -0.91155408906 -0.18510231132 
0.3925866008 -0.89884739157 -0.19480535807 0.42488714981 -0.88208262381 -0.20347273699 0.46294577853 -0.86092181393 -0.21093799194 
0.50479703312 -0.83543209345 -0.21733194103 0.5481240906 -0.80612305609 -0.22299237596 0.59247720615 -0.77278793952 -0.22752925247 
0.63530984503 -0.73671547921 -0.23158519707 0.67509856174 -0.69910088985 -0.23558412032 0.7104723926 -0.66149726471 -0.24010486902 
0.73961818149 -0.62634961594 -0.246274449 0.76042287634 -0.59693760052 -0.25577832243 0.771650513 -0.57591527687 -0.26995755157 
0.77066104804 -0.56694504745 -0.29095508625 0.75410726291 -0.5731051298 -0.32073781539 0.71799702049 -0.59555687221 -0.36026697121 
0.6586718894 -0.63194693352 -0.40840472001 0.57605913279 -0.67508013426 -0.46089335844 0.47735066897 -0.7145931769 -0.51136379454 
0.37516774722 -0.74240956543 -0.55504702378 0.28261146059 -0.7556723551 -0.59083843314 0.20652131284 -0.75625792635 -0.62082436822 
0.14850981031 -0.7472802516 -0.64770136777 0.10584842279 -0.73158557465 -0.67348248556 0.07513926579 -0.71114718719 -0.69901628657 
0.053491376149 -0.68745969278 -0.7242498488 0.037794994045 -0.66199644655 -0.74855343375 0.026855093337 -0.63625896748 -0.77100799624 
0.019000766249 -0.61200011985 -0.79062938485 0.013588050029 -0.59099112854 -0.80656360622 0.010095504167 -0.57488390994 -0.81817270236 
0.0078705747976 -0.56502102176 -0.82503896818 0.0078705747976 -0.56502102176 -0.82503896818 
FrenetBinormal 3 128 double
0.21650515228 0.19413546757 0.95678468804 0.21650515228 0.19413546757 0.95678468804 0.21588225055 0.20060338783 0.9555904639 
0.21459231451 0.21073848248 0.95369776688 0.21224685562 0.22438837874 0.95110521383 0.20835192185 0.24139641541 0.94779599455 
0.20236912447 0.26148965108 0.94375309262 0.19374772859 0.28435669392 0.93893721211 0.18202380527 0.3095248483 0.93330686411 
0.16685926614 0.3364505052 0.92680043313 0.14815917308 0.36443708138 0.91936634328 0.12624571143 0.39254675002 0.91102638238 
0.10210529112 0.41950265052 0.9019933679 0.078004632151 0.44329899238 0.89297328108 0.058862280296 0.46032508543 0.88579684335 
0.056238778596 0.46248574556 0.88484130495 0.10270667169 0.42513584836 0.89928352038 0.31610869949 0.23384992649 0.91945065229 
0.7635376099 -0.43959987839 0.47303516274 0.70177261644 -0.70529901269 -0.10034190304 0.6437660659 -0.72695061246 -0.23897292616 