# vtk DataFile Version 4.2
vtk output
ASCII
DATASET POLYDATA
POINTS 128 float
0 0 0 -0.123361 0.172123 0.277474 -0.351142 0.507089 0.804129 
-0.520649 0.797696 1.23102 -0.644168 1.06047 1.5874 -0.763703 1.34797 1.96496 
-0.882151 1.65299 2.36206 -0.992254 1.95458 2.75436 -1.09485 2.25197 3.14347 
-1.19294 2.54869 3.5368 -1.28925 2.84235 3.93518 -1.38637 3.12927 4.33762 
-1.4865 3.40844 4.74414 -1.59186 3.67971 5.15484 -1.70518 3.94289 5.56883 
-1.82937 4.19791 5.9848 -1.96721 4.44536 6.40101 -2.12141 4.68603 6.8155 
-2.29463 4.9206 7.22598 -2.48945 5.14959 7.62994 -2.70809 5.37314 8.02466 
-2.95252 5.5911 8.4073 -3.22411 5.8025 8.77501 -3.52383 6.00594 9.12504 
-3.85181 6.19913 9.45497 -4.20767 6.37933 9.76266 -4.58995 6.5433 10.0469 
-4.99658 6.68761 10.3069 -5.42467 6.8089 10.5432 -5.8709 6.90392 10.7568 
-6.3316 6.97009 10.9496 -6.80294 7.00518 11.1238 -7.28115 7.00759 11.2822 
-7.76247 6.97605 11.4273 -8.24331 6.90988 11.5621 -8.72014 6.80881 11.6891 
-9.18976 6.67338 11.811 -9.64916 6.50468 11.9301 -10.0959 6.30444 12.0484 
-10.528 6.07475 12.1675 -10.9442 5.81801 12.2882 -11.3435 5.53673 12.4109 
-11.7257 5.2334 12.5354 -12.0911 4.91047 12.6609 -12.4404 4.57006 12.7862 
-12.7744 4.21409 12.9096 -13.0944 3.84416 13.0288 -13.402 3.46162 13.141 
-13.6989 3.06777 13.2422 -13.9871 2.66385 13.3273 -14.2686 2.25109 13.3897 
-14.5457 1.83091 13.4209 -14.8203 1.40856 13.4047 -15.0939 0.992599 13.3198 
-15.3626 0.597656 13.154 -15.6184 0.242525 12.9038 -15.8557 -0.0650902 12.5805 
-16.0719 -0.327152 12.2072 -16.2688 -0.553992 11.803 -16.4517 -0.762628 11.3826 
-16.624 -0.964962 10.9551 -16.7875 -1.16804 10.5245 -16.9429 -1.37803 10.0941 
-17.0904 -1.60039 9.66716 -17.2298 -1.83908 9.2463 -17.36 -2.09658 8.83366 
-17.4798 -2.37418 8.43097 -17.5878 -2.67199 8.03953 -17.6823 -2.98913 7.65996 
-17.7619 -3.32377 7.2922 -17.8252 -3.67372 6.93571 -17.8712 -4.03638 6.58942 
-17.8988 -4.40914 6.25206 -17.9073 -4.7894 5.92212 -17.8961 -5.17466 5.59814 
-17.8649 -5.56263 5.27872 -17.8138 -5.95125 4.96271 -17.7428 -6.3388 4.64922 
-17.6524 -6.72392 4.33776 -17.5431 -7.10572 4.02825 -17.4158 -7.48377 3.72108 
-17.2713 -7.8582 3.41712 -17.1105 -8.2296 3.11764 -16.9345 -8.59913 2.82439 
-16.7443 -8.96874 2.5403 -16.5407 -9.34146 2.26997 -16.3245 -9.72035 2.01848 
-16.0972 -10.1085 1.79152 -15.8608 -10.5114 1.60311 -15.6184 -10.9388 1.48048 
-15.3813 -11.3882 1.45295 -15.1742 -11.8366 1.55109 -15.0157 -12.2595 1.78189 
-14.9114 -12.634 2.10955 -14.8589 -12.9506 2.49876 -14.8436 -13.2237 2.92313 
-14.8526 -13.4676 3.36367 -14.8789 -13.691 3.81397 -14.9169 -13.9012 4.26982 
-14.9623 -14.1038 4.7285 -15.0113 -14.304 5.18777 -15.0603 -14.5065 5.64603 
-15.106 -14.7156 6.1017 -15.1451 -14.9351 6.55309 -15.1747 -15.1683 6.99838 
-15.1916 -15.4177 7.43543 -15.1929 -15.6852 7.86211 -15.1764 -15.9711 8.27639 
-15.1403 -16.2745 8.67671 -15.0838 -16.5931 9.06262 -15.0068 -16.9239 9.43433 
-14.9101 -17.2636 9.79334 -14.7949 -17.6084 10.1416 -14.6626 -17.9552 10.4818 
-14.515 -18.301 10.8167 -14.3549 -18.6435 11.149 -14.1849 -18.9809 11.4815 
-14.0064 -19.3117 11.8167 -13.822 -19.635 12.1567 -13.6395 -19.9517 12.5016 
-13.4656 -20.2641 12.8523 -13.3007 -20.5775 13.2144 -13.147 -20.8935 13.588 
-13.017 -21.1986 13.9512 -12.9319 -21.4997 14.2964 -12.9336 -21.8845 14.6796 
-13.0363 -22.3777 15.111 -13.1089 -22.6404 15.3298 
LINES 1 129
128 0 1 2 3 4 5 6 7 8 9 10 11 12 13 14 15 16 17 18 19 20 21 22 23 24 25 26 27 28 29 30 31 32 33 34 35 36 37 38 39 40 41 42 43 44 45 46 47 48 49 50 51 52 53 54 55 56 57 58 59 60 61 62 63 64 65 66 67 68 69 70 71 72 73 74 75 76 77 78 79 80 81 82 83 84 85 86 87 88 89 90 91 92 93 94 95 96 97 98 99 100 101 102 103 104 105 106 107 108 109 110 111 112 113 114 115 116 117 118 119 120 121 122 123 124 125 126 127 

CELL_DATA 1
FIELD FieldData 2
Length 1 1 double
61.171786244 
Tortuosity 1 1 double
1.0173950312 
POINT_DATA 128
SCALARS MaximumInscribedSphereRadius float
LOOKUP_TABLE default
0.62 0.85737 1.09021 1.23649 1.38277 1.24931 1.09531 0.964862 0.835174 
0.8798 0.937085 1.03187 1.12973 1.1249 1.10943 1.04548 0.975617 0.950882 
0.932567 0.931618 0.9335 0.971993 1.01725 1.0502 1.0806 1.05879 1.02493 
1.00942 0.998608 1.03382 1.08199 1.11766 1.14949 1.13065 1.09479 1.04426 
0.988369 0.965194 0.954947 0.96279 0.978354 1.02271 1.08031 1.14983 1.22524 
1.32268 1.43179 1.55373 1.68295 1.712 1.68024 1.60884 1.51184 1.46942 
1.46554 1.49502 1.54911 1.56179 1.5416 1.50357 1.45032 1.39015 1.32372 
1.32223 1.38342 1.4428 1.50034 1.53504 1.54477 1.55 1.55 1.55 
1.55 1.55469 1.56557 1.58881 1.62946 1.67753 1.73675 1.78124 1.80204 
1.79858 1.75346 1.70176 1.63794 1.55857 1.44858 1.37312 1.37055 1.39659 
1.48802 1.58541 1.6984 1.80749 1.90648 1.99333 2.0435 2.0763 2.05273 
2.02467 1.98063 1.95298 1.98935 2.0322 2.10301 2.17489 2.25186 2.33021 
2.41601 2.51004 2.65414 2.79293 2.89467 2.98326 2.96509 2.9434 2.88807 
2.83559 2.81708 2.79838 2.77711 2.75293 2.65113 2.54456 2.36329 2.18201 
1.86893 1.55 
TEXTURE_COORDINATES TCoords 2 float
0 0 0.00787402 0 0.015748 0 0.023622 0 0.0314961 
0 0.0393701 0 0.0472441 0 0.0551181 0 0.0629921 0 
0.0708661 0 0.0787402 0 0.0866142 0 0.0944882 0 0.102362 
0 0.110236 0 0.11811 0 0.125984 0 0.133858 0 
0.141732 0 0.149606 0 0.15748 0 0.165354 0 0.173228 
0 0.181102 0 0.188976 0 0.19685 0 0.204724 0 
0.212598 0 0.220472 0 0.228346 0 0.23622 0 0.244094 
0 0.251969 0 0.259843 0 0.267717 0 0.275591 0 
0.283465 0 0.291339 0 0.299213 0 0.307087 0 0.314961 
0 0.322835 0 0.330709 0 0.338583 0 0.346457 0 
0.354331 0 0.362205 0 0.370079 0 0.377953 0 0.385827 
0 0.393701 0 0.401575 0 0.409449 0 0.417323 0 
0.425197 0 0.433071 0 0.440945 0 0.448819 0 0.456693 
0 0.464567 0 0.472441 0 0.480315 0 0.488189 0 
0.496063 0 0.503937 0 0.511811 0 0.519685 0 0.527559 
0 0.535433 0 0.543307 0 0.551181 0 0.559055 0 
0.566929 0 0.574803 0 0.582677 0 0.590551 0 0.598425 
0 0.606299 0 0.614173 0 0.622047 0 0.629921 0 
0.637795 0 0.645669 0 0.653543 0 0.661417 0 0.669291 
0 0.677165 0 0.685039 0 0.692913 0 0.700787 0 
0.708661 0 0.716535 0 0.724409 0 0.732283 0 0.740157 
0 0.748031 0 0.755906 0 0.76378 0 0.771654 0 
0.779528 0 0.787402 0 0.795276 0 0.80315 0 0.811024 
0 0.818898 0 0.826772 0 0.834646 0 0.84252 0 
0.850394 0 0.858268 0 0.866142 0 0.874016 0 0.88189 
0 0.889764 0 0.897638 0 0.905512 0 0.913386 0 
0.92126 0 0.929134 0 0.937008 0 0.944882 0 0.952756 
0 0.96063 0 0.968504 0 0.976378 0 0.984252 0 
0.992126 0 1 0 
FIELD FieldData 7
Curvature 1 128 double
0 0.0064419507432 0.011336671472 0.014758997933 0.016354921594 0.016041962645 0.014042549152 0.011025598529 0.0087764265588 
0.010455432487 0.015996096429 0.023337643475 0.031580271907 0.040404368748 0.049683106383 0.05933897902 0.069287165424 0.07940351547 
0.089518312775 0.099406947334 0.10881714375 0.11749214382 0.12515296351 0.13159525191 0.13668131305 0.14035139032 0.14264731319 
0.14370172638 0.14374561074 0.14302564358 0.14177007916 0.14019851377 0.13844960759 0.13656570795 0.13452575757 0.1322356149 
0.12958130702 0.12641872369 0.12264047962 0.1181996533 0.11313638034 0.10762183863 0.10202409557 0.09701545942 0.093632987101 
0.093278452314 0.097379469109 0.10684382621 0.12162411225 0.1406405609 0.16198717138 0.18297263457 0.20030517021 0.21059270741 
0.2113166753 0.20173865627 0.18324956275 0.1587264474 0.13154624768 0.10489629334 0.081490865365 0.064011552088 0.054881249985 
0.054441379304 0.05958667041 0.066509532529 0.072950457899 0.077919746893 0.081163208364 0.082824250726 0.083213251189 0.08273462663 
0.081779169019 0.080644472084 0.079484824968 0.078415474714 0.077466674689 0.076676541238 0.076281504223 0.076782811855 0.079032730168 
0.084363996966 0.094250855608 0.11005502873 0.13278941197 0.16303605064 0.20083771852 0.24504591167 0.29224117929 0.33571717805 
0.36599336311 0.37424469303 0.357267052 0.31957059207 0.2703060394 0.21833031718 0.16928533247 0.12564906899 0.087796704943 
0.055209420668 0.02716091929 0.0038476052578 0.01829629023 0.035831323925 0.05029125101 0.061518754668 0.069483823875 0.074148913509 
0.075619381998 0.074096650616 0.069943190892 0.063464288514 0.055066570303 0.045036037975 0.033649027824 0.021119504157 0.0079284762045 
0.0075886110767 0.021484839371 0.034952984644 0.046519172413 0.054743346576 0.058237181378 0.056026517541 0.047854302688 0.034355175604 
0.017022669275 0 
Torsion 1 128 double
0 0 -0.065153979201 -0.10004552668 -0.15220410845 -0.24060806089 -0.41661796123 -0.82316334075 -1.5239598601 
-1.2654780535 -0.65877462903 -0.39012462968 -0.27227870244 -0.21017483285 -0.16990316822 -0.13826488373 -0.11059921681 -0.084627779229 
-0.059550670193 -0.035183875912 -0.011564057024 0.01150433633 0.034005014611 0.055687949438 0.076638404461 0.096810968091 0.11589038296 
0.1332560651 0.14842854882 0.16078406977 0.16939495118 0.17365577461 0.17318682904 0.16763320904 0.15707071164 0.14168899646 
0.12184183888 0.097419013116 0.067610137911 0.031646900195 -0.012170060786 -0.066542022473 -0.13314647804 -0.21136850359 -0.29340005459 
-0.35877932638 -0.38158978843 -0.35414815462 -0.29491930303 -0.22840610075 -0.16918949249 -0.12099023903 -0.082215346884 -0.050037006871 
-0.021024471341 0.008431916251 0.042503401287 0.087363737228 0.15285569382 0.2548775795 0.41392825347 0.62033547104 0.74055051052 
0.62453196737 0.40271584152 0.2242253575 0.10506432557 0.02581777407 -0.029429170496 -0.069485761773 -0.098201098448 -0.11690114424 
-0.12485537044 -0.12077961938 -0.10374570642 -0.073069191962 -0.028262154559 0.030493228835 0.10186568339 0.1812089045 0.25655015239 
0.30859367354 0.32193847058 0.29754168069 0.25259778362 0.20427102941 0.16166905015 0.12770995353 0.10156296023 0.081904569821 
0.067318574053 0.056441936533 0.048377966008 0.042169483481 0.037079842311 0.032560513618 0.027798697189 0.021724802905 0.010835487466 
-0.017944198087 -0.15585521363 -8.2546793101 -0.26921299513 -0.020851510661 0.024671411462 0.044820542774 0.058215997348 0.069748666939 
0.081095856158 0.091264128916 0.10018801096 0.10708268151 0.1086346916 0.10087616486 0.070189564547 -0.046725972213 -1.2329972063 
-1.4156297578 -0.088269879567 0.021551051854 0.041525947473 0.042614675874 0.037773112927 0.030509587077 0.022893496684 0.015805491632 
0 0 
Abscissas 1 128 double
0 0.50339523721 1.0067904544 1.5101852896 2.0135801247 2.5169754116 3.0203707316 3.5237623445 4.0271538375 
4.5305517829 5.0339501969 5.5373440426 6.0407375123 6.5441341732 7.0475311647 7.5509250575 8.0543185721 8.5577131855 
9.0611079553 9.5645029605 10.067898004 10.571294513 11.074691293 11.57808664 12.081481689 12.584872915 13.088263258 
13.591666179 14.095072317 14.598468976 15.10186297 15.605253622 16.108643245 16.612035196 17.115427929 17.618822404 
18.122217514 18.625611817 19.1290058 19.632396369 20.135785482 20.639179126 21.142574854 21.64598555 22.149403642 
22.652804232 23.156195549 23.659595186 24.162999542 24.666391796 25.169776704 25.673171205 26.176571905 26.679956143 
27.183328755 27.686722093 28.190130717 28.69353606 29.196938797 29.700320734 30.203684923 30.707075483 31.21048995 
31.713893383 32.217286169 32.720684811 33.22408947 33.727486733 34.230875904 34.734268646 35.237665547 35.741060446 
36.244452859 36.747846756 37.251242618 37.75463821 38.258033422 38.761428469 39.264823267 39.768221216 40.27162423 
40.775021069 41.2784073 41.781802561 42.285214426 42.788618163 43.292005893 43.795389515 44.298764465 44.802147171 
45.305547611 45.808954818 46.312379722 46.815795528 47.319187734 47.822580806 48.325976495 48.829371667 49.332765159 
49.836157261 50.339544415 50.842933539 51.346330349 51.849725019 52.353110463 52.856500695 53.35991388 53.863323292 
54.366712433 54.870100796 55.373484421 55.876869314 56.380263051 56.883658262 57.387065432 57.890471747 58.393869883 
58.897267118 59.400653603 59.90404009 60.407426601 60.910814076 61.414227334 61.917639449 62.42103368 62.92442791 
63.427799928 63.931170961 
ParallelTransportNormals 3 128 double
0 -0.84612394288 0.53298618489 -0.0082889941618 -0.83248586619 0.55340782354 -0.016402482798 -0.81901457205 0.57350919591 
-0.021160812697 -0.80873167863 0.58748800215 -0.025919142596 -0.79844878522 0.60146680839 -0.026387807429 -0.79736580043 0.60291874269 
-0.026541375204 -0.79695859431 0.60345051645 -0.02528562159 -0.80063456128 0.59858324194 -0.023984332158 -0.80444245744 0.59354152171 
-0.021154242105 -0.81277800962 0.58199264503 -0.018213129161 -0.82144236429 0.56997121274 -0.014624229503 -0.83093491466 0.5558979286 
-0.010982008703 -0.84049563615 0.54165575078 -0.007280263631 -0.84854396235 0.52885046774 -0.0035723532001 -0.85643563885 0.51619401426 
-0.00066955537115 -0.8613680627 0.50789298698 0.0021349823774 -0.86593932416 0.50012351829 0.0033702563456 -0.86759639975 0.49725027557 
0.004382257211 -0.86883884823 0.49507366242 0.0035639935413 -0.86812133284 0.49633360628 0.0024473714296 -0.86708431623 0.49815375647 
0.00064630030914 -0.86577527551 0.50042161031 -0.0012811767564 -0.86441599663 0.50277214731 -0.00088055195755 -0.8645681142 0.50251327395 
2.7493783079e-06 -0.86503358388 0.50171340143 0.0073613151034 -0.86780175215 0.49673338542 0.016215860394 -0.87110191261 0.49078763135 
0.034887703435 -0.87564919252 0.48109499975 0.056070130847 -0.88051539915 0.47044417655 0.087714173994 -0.8840346695 0.45766062193 
0.12230136347 -0.88717500885 0.44427707005 0.16588799167 -0.88617055005 0.43002319066 0.21224645135 -0.88388949143 0.41550124998 
0.26455923336 -0.87539314561 0.4007256114 0.31887244305 -0.86480869774 0.38586473989 0.37472889905 -0.84755282678 0.37103765124 
0.4311485383 -0.82786232591 0.3562228911 0.48486914099 -0.8029493065 0.34164262529 0.53752315017 -0.77597247492 0.32715502592 
0.5846938597 -0.74639371183 0.31326992033 0.62952444936 -0.71570451669 0.29964194233 0.66779357034 -0.68517968843 0.28718091903 
0.70304588162 -0.6547304322 0.2752564342 0.73209225419 -0.62646916275 0.26499665026 0.7580720689 -0.59928904933 0.25555944964 
0.77832114631 -0.57609556824 0.24826787581 0.79553418283 -0.5550141328 0.24211301622 0.80696757653 -0.5401824671 0.23839240264 
0.81512306992 -0.52889533223 0.23605236152 0.81578122778 -0.52825196678 0.23538959722 0.81188728578 -0.5340710974 0.23574521224 
0.79610516899 -0.55777121601 0.23134282249 0.77264331084 -0.59302242346 0.22386676949 0.74406748304 -0.63389597256 0.20305942704 
0.71187948724 -0.67874076983 0.17283574846 0.68775574051 -0.71074450164 0.14282288921 0.66957949742 -0.73327775668 0.11296551235 
0.66035069172 -0.74463400689 0.097108833135 0.65822364724 -0.74711884331 0.092364789551 0.66011352029 -0.74464765883 0.09766558097 
0.66543063601 -0.73794798671 0.11153664716 0.67294244604 -0.7271634036 0.13251153461 0.68244390118 -0.71267556072 0.15992653683 
0.69282181926 -0.6941506482 0.19155589892 0.70404541039 -0.67173048707 0.22725157168 0.7148955981 -0.64596344362 0.26425148923 
0.72536219464 -0.61675820335 0.30259123586 0.73450478935 -0.58580181923 0.33991016144 0.74219911395 -0.55292993223 0.37611245364 
0.74821488537 -0.51996118873 0.41023905926 0.75227492219 -0.48687959471 0.44194721775 0.75476988331 -0.45483828446 0.47146499368 
0.75532221424 -0.42408821314 0.49826398524 0.75464562801 -0.39490586877 0.52317441976 0.75234327114 -0.3677975165 0.54558642662 
0.74916817129 -0.34221740752 0.56658384817 0.74476195731 -0.31879307859 0.58558581858 0.73968458916 -0.29636929011 0.60377159904 
0.73359709248 -0.27545137692 0.62072896311 0.72678190468 -0.25470823198 0.63752536011 0.71879713557 -0.23424598326 0.65406304285 
0.70964831899 -0.21274717479 0.67121742518 0.69850016964 -0.18946800259 0.68943103208 0.68506355245 -0.16301265604 0.70923788861 
0.66741918685 -0.13071735737 0.73197421326 0.64516752559 -0.091026658048 0.75682145798 0.61384099051 -0.036769424931 0.78582652859 
0.57191790052 0.037931031639 0.81322374946 0.50761845078 0.15580069998 0.83722573246 0.44086429268 0.28815374269 0.83921147359 
0.36849737045 0.45362345433 0.79085641883 0.30866442025 0.60152584404 0.73046146547 0.2816147229 0.70347999358 0.6385755339 
0.26154608543 0.78665857629 0.55750392811 0.25958425342 0.8211388894 0.50448148626 0.25844027283 0.84982019009 0.45906164174 
0.25976687623 0.86098370302 0.43660789499 0.26088375667 0.86999060007 0.41838464862 0.26132063469 0.87200492033 0.41387830896 
0.26145367193 0.87264822758 0.41241371528 0.2605048469 0.86840987534 0.42177963021 0.25943378089 0.8629756964 0.43333494274 
0.25788544915 0.85287264851 0.4534383253 0.25650760442 0.84169062282 0.47479277004 0.25586469943 0.82585731229 0.50154032536 
0.2556000762 0.80951203674 0.5282271934 0.25714841047 0.79071311176 0.55462321087 0.25895060837 0.77235982607 0.579847511 
0.26211665708 0.75640068199 0.59877690548 0.26518167628 0.74155266426 0.61623083161 0.26763186442 0.7334665817 0.62470556172 
0.26970701983 0.72656509643 0.63194964639 0.26916762485 0.72792206172 0.63061425473 0.26824568964 0.73005019773 0.62852100514 
0.2642177742 0.73843974312 0.62027443755 0.259962678 0.74715166569 0.61165678578 0.25353369726 0.75894840407 0.59948824275 
0.24731992645 0.77033814921 0.58770388263 0.24367265567 0.77687426988 0.58050112111 0.24021960535 0.7830725405 0.57366468236 
0.2394680316 0.78457154317 0.57192354811 0.23909519499 0.78476892897 0.57164292959 0.24885111521 0.75015652323 0.61042161404 
0.2577972683 0.71415734689 0.65018222642 0.25406983513 0.6564539594 0.705310897 0.25034240196 0.59875057192 0.76043956758 
0.25018419193 0.59630136517 0.76277949108 0.25018419193 0.59630136517 0.76277949108 
FrenetTangent 3 128 double
-0.28215220279 0.55052489796 0.78569235149 -0.28215220279 0.55052489796 0.78569235149 -0.27810272119 0.55239620737 0.78582269409 
-0.2720881763 0.554974498 0.78611152573 -0.26479998039 0.55772378399 0.78665440389 -0.25707021997 0.56006056403 0.78755765923 
-0.24979281788 0.56144327886 0.78891380566 -0.24385109315 0.56144105142 0.79077214806 -0.24006116598 0.5597732866 0.79311065066 
-0.23913619109 0.55631907557 0.79581591355 -0.24166742463 0.55110374596 0.79867485065 -0.24812280433 0.54426741326 0.80137884726 
-0.25885308673 0.5360207712 0.80354017468 -0.27409738504 0.52659875214 0.80471384837 -0.29399055269 0.51621541606 0.80441979038 
-0.31856384198 0.50502079337 0.80216648948 -0.34773845402 0.49306184335 0.79747600981 -0.38131674007 0.48026162019 0.78990272814 
-0.41896953293 0.46640711332 0.77905643898 -0.46022153454 0.45115180236 0.76462944645 -0.50444301942 0.43403716692 0.74642412735 
-0.5508538785 0.41452780336 0.72438022114 -0.59853258082 0.39205741819 0.69860556148 -0.64644581806 0.36608296436 0.66939604683 
-0.69350082037 0.33614294774 0.6372319286 -0.73859775581 0.30190333889 0.60276672857 -0.78068699724 0.2631916712 0.56679622136 
-0.8188242749 0.22001708501 0.53020683619 -0.85221739596 0.17257325844 0.49390685406 -0.88025016709 0.12122067435 0.4587648542 
-0.9024861966 0.066467513588 0.42555931971 -0.91866879837 0.0089440508111 0.39492738934 -0.92871014753 -0.050633030422 0.36733330655 
-0.93267519864 -0.11148514283 0.34305690018 -0.9307731923 -0.17279890536 0.32218287168 -0.92334915745 -0.23375802252 0.30460387448 
-0.91087665912 -0.29357648075 0.29002855344 -0.89394750627 -0.35153014735 0.27800074019 -0.87326206072 -0.40698421021 0.26791272076 
-0.84961438386 -0.45942227834 0.25901075054 -0.82386509729 -0.50846587963 0.2504171534 -0.79691228034 -0.55387813784 0.24114274995 
-0.76965998104 -0.59555341871 0.2300861557 -0.7429716333 -0.63349344257 0.21605372094 -0.71762086518 -0.66776242814 0.19777166992 
-0.69423668851 -0.69842262362 0.17390014127 -0.67324326969 -0.7254469432 0.14307421997 -0.65478893174 -0.74862490079 0.10398179062 
-0.63868184714 -0.76746827714 0.055479200732 -0.62434662494 -0.78114080624 -0.0032144598739 -0.61081111911 -0.78847579433 -0.072219793184 
-0.59678706299 -0.78812983266 -0.15065380287 -0.58086902874 -0.77893377921 -0.23633311038 -0.5618498081 -0.76041174368 -0.32572806635 
-0.539082433 -0.73327790297 -0.41435932167 -0.5127038634 -0.6996447448 -0.49762634529 -0.48358212046 -0.66274272417 -0.57176954652 
-0.45300460753 -0.62624192034 -0.63451389486 -0.42226754701 -0.59351451229 -0.68515008753 -0.39235265453 -0.56711893356 -0.72417919722 
-0.36379097516 -0.54861102395 -0.75278288423 -0.33667450696 -0.53860272225 -0.77237127339 -0.31075715584 -0.53692672658 -0.78430840897 
-0.28558441493 -0.54282973035 -0.78979581272 -0.26060000575 -0.55515065999 -0.78987048414 -0.23525553997 -0.57247285331 -0.78544870178 
-0.20907909963 -0.59326967098 -0.77737830405 -0.18170866194 -0.61603000943 -0.76647830345 -0.15292064469 -0.63936373952 -0.75354448111 
-0.12262746556 -0.66208306064 -0.73932978129 -0.090864091694 -0.68324619549 -0.72451249347 -0.057766694235 -0.70217655584 -0.7096556161 
-0.023538896374 -0.71845884649 -0.69517106259 0.011566549178 -0.73192113464 -0.68129117682 0.047253842343 -0.74260924176 -0.66805582734 
0.083204392141 -0.75076745003 -0.65530547464 0.11909493472 -0.75682194705 -0.64267949787 0.15459323501 -0.76136618481 -0.62962088936 
0.18937372355 -0.76514564591 -0.61537771602 0.22313073623 -0.76903285454 -0.59900011952 0.25556115642 -0.77398758854 -0.57933730082 
0.28635883816 -0.78099219329 -0.55502235074 0.31518744324 -0.79095651264 -0.52444701423 0.34161259273 -0.80458789585 -0.48573568361 
0.36502752267 -0.82220657138 -0.43672790348 0.38452728029 -0.84350389387 -0.37501993511 0.39877180059 -0.86723104518 -0.29814655008 
0.40590091419 -0.89084799229 -0.2040448541 0.40359704922 -0.91030530222 -0.091943888402 0.38952706682 -0.92029704189 0.036359577904 
0.36224723796 -0.91543731881 0.17536092475 0.32231092319 -0.89235083655 0.31595197942 0.27280994449 -0.85160262286 0.44760217484 
0.21865785537 -0.79789103035 0.56174606895 0.16500708721 -0.73817157927 0.65412183936 0.1158855855 -0.67918299088 0.72476271701 
0.073728099793 -0.6259196979 0.77639467997 0.039621813201 -0.58133828295 0.8126966917 0.013781806469 -0.54675459205 0.8371794777 
-0.004030667991 -0.52238189832 0.85270212034 -0.014252119415 -0.50774983812 0.86138666055 -0.017395817889 -0.50197379856 0.86470786459 
-0.014006011178 -0.50390477181 0.86364565222 -0.0046617274448 -0.51220658093 0.85884962989 0.0099965233264 -0.52542619717 0.85078045396 
0.029243373468 -0.5420447863 0.83984062461 0.052258643502 -0.56054541135 0.82647315504 0.078125137841 -0.57950573129 0.81121487304 
0.10584486297 -0.59767461348 0.79472128535 0.13437659582 -0.61404351091 0.7777489937 0.162662162 -0.6279184213 0.76109097829 
0.18965211226 -0.63893146956 0.74551904974 0.21432688987 -0.64703510853 0.73171685276 0.23570650687 -0.65248482639 0.72021246445 
0.25286233793 -0.6557829241 0.71134337314 0.26493775725 -0.6576135835 0.7052321317 0.27118130493 -0.65875657623 0.70178377947 
0.27101226368 -0.65998301318 0.7006959221 0.26412121352 -0.66194376418 0.7014773251 0.25059129108 -0.66505579322 0.70349470271 
0.23103240087 -0.66942666647 0.70603963626 0.20669776395 -0.67483074056 0.708434546 0.1795229055 -0.6807699636 0.71015757622 
0.15201832385 -0.68660517269 0.71095974995 0.12699730844 -0.69170490814 0.71092615911 0.1071866716 -0.69557475524 0.71041310328 
0.094802342586 -0.69791197981 0.7098812466 0.094802342586 -0.69791197981 0.7098812466 
FrenetNormal 3 128 double
0.9019791933 0.43123114364 0.02175397899 0.9019791933 0.43123114364 0.02175397899 0.91061643268 0.41195841255 0.032679945989 
0.92393284165 0.37897003134 0.052247674363 0.94111343735 0.3272976649 0.084745127292 0.95929988897 0.24644328535 0.13787468995 
0.96746272004 0.11085037902 0.22743807687 0.91323426077 -0.14149625812 0.38207590071 0.57194376395 -0.5785854231 0.58148021381 
-0.12787293964 -0.83050085405 0.54214098049 -0.54703590421 -0.75718974433 0.35695295291 -0.72825650524 -0.6503123403 0.21618585205 
-0.81862436262 -0.56329369496 0.11204626786 -0.86925418043 -0.49363044081 0.026947313514 -0.89798268264 -0.43746460022 -0.047453400596 
-0.9122984328 -0.39310190915 -0.11481488812 -0.91594776815 -0.36034898223 -0.1766020867 -0.91128473342 -0.33894052599 -0.23383638401 
-0.89967511848 -0.32915518462 -0.28677786808 -0.88199389675 -0.33071106404 -0.33573346306 -0.8586260607 -0.34336321088 -0.38060871418 
-0.82965437116 -0.36633827621 -0.42127175528 -0.7948879326 -0.39902836123 -0.45708811135 -0.75404753969 -0.4402658186 -0.48742006203 
-0.70680581124 -0.48879293043 -0.51137756732 -0.65288075215 -0.54313519377 -0.52796863993 -0.59209150242 -0.60163025923 -0.53616106157 
-0.52445770528 -0.66224918334 -0.53513562257 -0.45027537341 -0.72264642847 -0.52443705773 -0.37011448694 -0.78042279665 -0.50394000142 
-0.2849576137 -0.83302544594 -0.47420224041 -0.1962114043 -0.87803025533 -0.43653631641 -0.10556290462 -0.91354025711 -0.39281124195 
-0.014927018844 -0.93829770993 -0.34550628309 0.073725965754 -0.95186202573 -0.2975284288 0.15862954598 -0.95469254014 -0.25179122491 
0.23824297279 -0.94794107961 -0.2113007229 0.31146530668 -0.93331915797 -0.17861890187 0.37730111964 -0.91273458699 -0.15671451378 
0.43493086787 -0.88811350325 -0.14862552108 0.48345280023 -0.86103600036 -0.15776690409 0.52140891511 -0.83223899241 -0.18844363282 
0.54611584264 -0.80079049063 -0.24595137026 0.55328811277 -0.76293913884 -0.33435928983 0.53656064628 -0.71116140839 -0.45425997411 
0.49080698599 -0.63610838326 -0.59537771812 0.4185707909 -0.53341417923 -0.73502911943 0.33521023557 -0.41094957247 -0.84779392948 
0.26027465358 -0.28332334744 -0.92303032751 0.20708509997 -0.16154740978 -0.9648928416 0.17930324247 -0.0489030351 -0.98257765108 
0.17479880373 0.055549773318 -0.98303591028 0.18936251871 0.15306255842 -0.96990395902 0.21850681756 0.24335074532 -0.9450053891 
0.25801203907 0.32454003235 -0.91000195335 0.30498883549 0.39338346901 -0.86731266365 0.3581684062 0.44620864009 -0.82013001549 
0.41896951625 0.47869106573 -0.77156944473 0.49200264948 0.48475541326 -0.72314976472 0.58538713479 0.45333190556 -0.67216968529 
0.70714431353 0.3633728373 -0.60655346092 0.84796489866 0.18320829871 -0.49738340334 0.94521553642 -0.087767150418 -0.31442728416 
0.9311342698 -0.35218368492 -0.094634157015 0.85221933171 -0.51671887976 0.081998841177 0.78159236408 -0.59179030212 0.19722478224 
0.7414372795 -0.61450081085 0.26955428772 0.72916963032 -0.60737381372 0.31529145347 0.73744900193 -0.58142765668 0.3436725907 
0.7598962099 -0.54181139877 0.35916313612 0.79094224049 -0.49156959141 0.36437577994 0.82582665918 -0.43302919467 0.361242364 
0.8602832633 -0.36878481897 0.35200918195 0.89054995911 -0.30231046451 0.33989579782 0.91389176332 -0.23782054723 0.32900339247 
0.92866785759 -0.18010205958 0.32425184411 0.9340919381 -0.13402330911 0.33092295747 0.92919398932 -0.10449774567 0.35451199043 
0.91174408308 -0.095624219294 0.39947307251 0.87673858736 -0.11026657165 0.46815673936 0.81684696699 -0.14767918216 0.55763060504 
0.72653873534 -0.20064033378 0.65717952076 0.60902082122 -0.25524114604 0.75096311273 0.47773034198 -0.29642292614 0.82698680111 
0.34857365365 -0.3142773985 0.88302102171 0.23008721093 -0.30585527835 0.92385736132 0.1236935399 -0.27127863328 0.95451967571 
0.026602494421 -0.21165265559 0.9769828354 -0.06443895693 -0.12852393894 0.98961063957 -0.15092971551 -0.024839259738 0.98823237761 
-0.23228276793 0.093540129717 0.96813994849 -0.30586723117 0.21769083343 0.92685270563 -0.36865485058 0.33720238897 0.86624947331 
-0.41895473161 0.44315390597 0.79252227003 -0.45692516403 0.53053589234 0.71396852971 -0.48447510733 0.59834198656 0.63817766922 
-0.50386435475 0.64846161358 0.57062969405 -0.51711094404 0.68401919611 0.5145036549 -0.52485958109 0.70868405553 0.47147569352 
-0.52433264867 0.72719507064 0.44301535275 -0.49619758296 0.75150680995 0.43477059844 0.13281272464 0.85601482084 0.49959924607 
0.72090581615 -0.60361907958 -0.34049788693 0.6860165522 -0.62652574658 -0.36992807271 0.68829164329 -0.61357264729 -0.387018372 
0.70078004567 -0.58801436727 -0.40391389116 0.71789004647 -0.55421542428 -0.42128273721 0.73760040079 -0.51382606718 -0.43809636091 
0.75915649732 -0.4676195143 -0.45278405716 0.78213252682 -0.41620073202 -0.46373015985 0.8053178884 -0.36119417808 -0.47010835382 
0.82858661689 -0.30321192023 -0.47064503581 0.85043579905 -0.24485821173 -0.46562152855 0.86969482656 -0.18908823188 -0.45593480809 
0.88375244497 -0.1426702745 -0.44567567668 0.88582161105 -0.1229600164 -0.44743816083 0.79777199005 -0.25410636961 -0.54679960206 
-0.92398579421 -0.38241638649 -0.0028212485366 -0.96230888069 -0.22973998889 0.14553747166 -0.96637232758 -0.21515049266 0.14083603941 
-0.96992770711 -0.21558271236 0.11297936583 -0.97343843894 -0.21470387324 0.079497499401 -0.9764667761 -0.21101382282 0.044562335664 
-0.97887567398 -0.20409183751 0.012203964964 -0.98046913847 -0.19605295035 -0.015604780158 -0.98145015913 -0.18825976262 -0.036247026262 
-0.98172467433 -0.18374533229 -0.049541060434 -0.98172467433 -0.18374533229 -0.049541060434 
FrenetBinormal 3 128 double
-0.32683890422 0.71481608647 -0.61823482044 -0.32683890422 0.71481608647 -0.61823482044 -0.30567399138 0.72467144032 -0.61758781932 
-0.26891658269 0.74053023025 -0.61587242968 -0.21020577641 0.76277153809 -0.61154976268 -0.11687012033 0.79094745193 -0.60061926647 
0.040242185246 0.82005709441 -0.57086507025 0.32640439539 0.81532984413 -0.47822318633 0.78437935176 0.59320550889 -0.18126294921 
0.96252916497 0.027882208828 0.26974096651 0.80146651544 -0.35063991825 0.48446163145 0.63880946811 -0.52996871881 0.55772360586 
0.51268824095 -0.62879404105 0.58460997385 0.41142167337 -0.69211468858 0.59305097971 0.32740900507 -0.73630589281 0.59216296373 
0.25734927258 -0.76839110307 0.58595773279 0.20029391808 -0.79185770795 0.57692609297 0.15542740551 -0.8089920247 0.56689877897 
0.12267522838 -0.82104888349 0.5575208689 0.10140466086 -0.82891027461 0.55011348956 0.091096257038 -0.83289461707 0.54588279768 
0.090739346201 -0.83304439715 0.54571366432 0.099558647525 -0.82889525742 0.55047318548 0.11627601733 -0.81984710293 0.56065195587 
0.13957849886 -0.8050399927 0.57656608711 0.1679883287 -0.78349124772 0.5982653142 0.19988863176 -0.75416919546 0.62551847256 