# vtk DataFile Version 4.2
vtk output
ASCII
DATASET POLYDATA
POINTS 128 float
0 0 0 -0.297231 0.0970956 0.120679 -0.880219 0.281095 0.369043 
-1.36486 0.417967 0.602536 -1.7636 0.508784 0.819032 -2.1877 0.587903 1.05189 
-2.63512 0.649436 1.29666 -3.07842 0.678106 1.54017 -3.51858 0.667067 1.77788 
-3.96267 0.611308 2.00681 -4.4067 0.5027 2.21937 -4.84317 0.333697 2.40694 
-5.26401 0.104766 2.56282 -5.66185 -0.179799 2.68197 -6.03419 -0.509039 2.76517 
-6.38109 -0.870087 2.81544 -6.70783 -1.25203 2.83751 -7.02168 -1.64497 2.83641 
-7.33062 -2.04112 2.81512 -7.64275 -2.43345 2.77548 -7.96509 -2.81497 2.71688 
-8.30369 -3.17864 2.63749 -8.66117 -3.51707 2.53346 -9.03793 -3.82313 2.40021 
-9.42915 -4.09278 2.23377 -9.82749 -4.32399 2.03076 -10.224 -4.51976 1.79008 
-10.6092 -4.68568 1.51181 -10.9747 -4.82959 1.19727 -11.3132 -4.96034 0.848408 
-11.6173 -5.08648 0.467775 -11.8802 -5.21623 0.0583983 -12.0949 -5.35638 -0.374963 
-12.2547 -5.51264 -0.826426 -12.3548 -5.68804 -1.28797 -12.3924 -5.88391 -1.75048 
-12.3686 -6.09905 -2.20547 -12.2872 -6.33088 -2.64504 -12.1535 -6.5765 -3.06382 
-11.9737 -6.8329 -3.45801 -11.7531 -7.09783 -3.82478 -11.4966 -7.36954 -4.16189 
-11.2075 -7.64683 -4.4665 -10.8884 -7.92885 -4.73528 -10.5419 -8.21447 -4.96288 
-10.1707 -8.50234 -5.14207 -9.77512 -8.79152 -5.25857 -9.35564 -9.08021 -5.2923 
-8.93565 -9.35188 -5.2101 -8.5548 -9.58009 -4.97345 -8.24976 -9.74879 -4.59928 
-8.05213 -9.85111 -4.14428 -7.95779 -9.89952 -3.64994 -7.93771 -9.91965 -3.14507 
-7.97473 -9.92805 -2.64352 -8.06111 -9.93424 -2.14817 -8.1908 -9.94739 -1.66204 
-8.35898 -9.97652 -1.18841 -8.56125 -10.03 -0.73072 -8.79344 -10.1154 -0.292439 
-9.04947 -10.2383 0.123227 -9.32158 -10.4025 0.51345 -9.60122 -10.6084 0.877876 
-9.87924 -10.8532 1.21842 -10.1479 -11.1331 1.53874 -10.4009 -11.4428 1.84405 
-10.6332 -11.7775 2.13908 -10.8409 -12.133 2.42805 -11.0205 -12.5057 2.71419 
-11.1683 -12.8927 2.99965 -11.2806 -13.291 3.28575 -11.3534 -13.6979 3.57286 
-11.3822 -14.1099 3.86043 -11.3622 -14.5233 4.14694 -11.2889 -14.9333 4.42996 
-11.1585 -15.3339 4.70604 -10.9695 -15.7182 4.97133 -10.7227 -16.0789 5.22158 
-10.4216 -16.4098 5.45335 -10.073 -16.7058 5.66431 -9.6841 -16.9638 5.85349 
-9.26311 -17.1829 6.02157 -8.8174 -17.3634 6.17005 -8.35328 -17.507 6.30135 
-7.87607 -17.6153 6.41814 -7.38985 -17.6903 6.5233 -6.89807 -17.7334 6.61971 
-6.40346 -17.7463 6.71015 -5.90841 -17.7303 6.79743 -5.41495 -17.6869 6.88436 
-4.92492 -17.6179 6.97389 -4.43989 -17.5252 7.06908 -3.96125 -17.4114 7.17317 
-3.49008 -17.2797 7.28961 -3.02727 -17.134 7.42173 -2.57344 -16.9786 7.57265 
-2.12889 -16.8183 7.74468 -1.69346 -16.6581 7.9386 -1.26642 -16.5027 8.15394 
-0.846058 -16.3566 8.38808 -0.430315 -16.2238 8.63785 -0.0166449 -16.1083 8.89942 
0.397369 -16.0141 9.16893 0.813737 -15.9458 9.44265 1.2338 -15.9084 9.71691 
1.6575 -15.9076 9.98823 2.08344 -15.9497 10.2532 2.50759 -16.0413 10.5084 
2.92414 -16.1883 10.7506 3.32391 -16.3947 10.9771 3.69656 -16.6624 11.1859 
4.0302 -16.9889 11.3761 4.31352 -17.369 11.5478 4.53752 -17.7935 11.7023 
4.69555 -18.2515 11.8414 4.78657 -18.7307 11.9679 4.81228 -19.2197 12.0848 
4.77956 -19.7102 12.1956 4.69643 -20.1951 12.3039 4.57142 -20.6698 12.4113 
4.41432 -21.1325 12.5214 4.2389 -21.59 12.645 4.05609 -22.0446 12.7875 
3.86436 -22.477 12.931 3.67579 -22.8861 13.0793 3.56186 -23.3559 13.3333 
3.56632 -23.8896 13.7175 3.59509 -24.1565 13.9283 
LINES 1 129
128 0 1 2 3 4 5 6 7 8 9 10 11 12 13 14 15 16 17 18 19 20 21 22 23 24 25 26 27 28 29 30 31 32 33 34 35 36 37 38 39 40 41 42 43 44 45 46 47 48 49 50 51 52 53 54 55 56 57 58 59 60 61 62 63 64 65 66 67 68 69 70 71 72 73 74 75 76 77 78 79 80 81 82 83 84 85 86 87 88 89 90 91 92 93 94 95 96 97 98 99 100 101 102 103 104 105 106 107 108 109 110 111 112 113 114 115 116 117 118 119 120 121 122 123 124 125 126 127 

CELL_DATA 1
FIELD FieldData 2
Length 1 1 double
57.784914306 
Tortuosity 1 1 double
1.0552983944 
POINT_DATA 128
SCALARS MaximumInscribedSphereRadius float
LOOKUP_TABLE default
0.93 1.0292 1.12841 1.13865 1.14162 1.0594 0.974038 0.950984 0.931384 
0.93 0.93 0.954674 0.981684 1.08828 1.20378 1.31784 1.4317 1.49117 
1.54229 1.54101 1.53042 1.49187 1.44767 1.48639 1.54399 1.58351 1.61847 
1.60486 1.57774 1.59237 1.61977 1.58178 1.52192 1.48188 1.44903 1.47588 
1.52612 1.54422 1.54878 1.55421 1.56003 1.55503 1.54472 1.47465 1.37308 
1.38241 1.45451 1.56197 1.69071 1.76807 1.8136 1.86505 1.92009 1.91152 
1.86252 1.7809 1.67711 1.65173 1.68344 1.73948 1.81449 1.85165 1.85733 
1.86 1.86 1.86 1.86 1.86938 1.88834 1.93203 2.00276 2.08978 
2.19586 2.26364 2.28353 2.21612 2.03228 1.91122 1.87924 1.86 1.86 
1.86543 1.87964 1.92681 2.03108 2.06343 1.96161 1.84952 1.71673 1.63963 
1.68418 1.72968 1.77744 1.83056 1.89752 1.97742 2.09397 2.20878 2.31819 
2.3766 2.25982 2.14355 2.02926 1.95508 2.05198 2.13713 2.16603 2.20053 
2.26525 2.32659 2.36734 2.38567 2.24979 2.12293 2.06668 2.01788 2.03697 
2.05847 2.10629 2.14401 2.04075 1.95309 2.173 2.3943 2.65902 2.89523 
2.68762 2.48 
TEXTURE_COORDINATES TCoords 2 float
0 0 0.00787402 0 0.015748 0 0.023622 0 0.0314961 
0 0.0393701 0 0.0472441 0 0.0551181 0 0.0629921 0 
0.0708661 0 0.0787402 0 0.0866142 0 0.0944882 0 0.102362 
0 0.110236 0 0.11811 0 0.125984 0 0.133858 0 
0.141732 0 0.149606 0 0.15748 0 0.165354 0 0.173228 
0 0.181102 0 0.188976 0 0.19685 0 0.204724 0 
0.212598 0 0.220472 0 0.228346 0 0.23622 0 0.244094 
0 0.251969 0 0.259843 0 0.267717 0 0.275591 0 
0.283465 0 0.291339 0 0.299213 0 0.307087 0 0.314961 
0 0.322835 0 0.330709 0 0.338583 0 0.346457 0 
0.354331 0 0.362205 0 0.370079 0 0.377953 0 0.385827 
0 0.393701 0 0.401575 0 0.409449 0 0.417323 0 
0.425197 0 0.433071 0 0.440945 0 0.448819 0 0.456693 
0 0.464567 0 0.472441 0 0.480315 0 0.488189 0 
0.496063 0 0.503937 0 0.511811 0 0.519685 0 0.527559 
0 0.535433 0 0.543307 0 0.551181 0 0.559055 0 
0.566929 0 0.574803 0 0.582677 0 0.590551 0 0.598425 
0 0.606299 0 0.614173 0 0.622047 0 0.629921 0 
0.637795 0 0.645669 0 0.653543 0 0.661417 0 0.669291 
0 0.677165 0 0.685039 0 0.692913 0 0.700787 0 
0.708661 0 0.716535 0 0.724409 0 0.732283 0 0.740157 
0 0.748031 0 0.755906 0 0.76378 0 0.771654 0 
0.779528 0 0.787402 0 0.795276 0 0.80315 0 0.811024 
0 0.818898 0 0.826772 0 0.834646 0 0.84252 0 
0.850394 0 0.858268 0 0.866142 0 0.874016 0 0.88189 
0 0.889764 0 0.897638 0 0.905512 0 0.913386 0 
0.92126 0 0.929134 0 0.937008 0 0.944882 0 0.952756 
0 0.96063 0 0.968504 0 0.976378 0 0.984252 0 
0.992126 0 1 0 
FIELD FieldData 7
Curvature 1 128 double
0 0.023239886518 0.044179573728 0.065204894117 0.086357312823 0.10755825249 0.12846918445 0.14834983897 0.16599548944 
0.17982707006 0.18821232379 0.18996551781 0.18484236197 0.17379172842 0.15884595681 0.14275920729 0.12854972761 0.11897859059 
0.11572643545 0.11865125321 0.12590611247 0.13505430745 0.14396765574 0.15128029566 0.15649609451 0.15994916819 0.16266037129 
0.16597162417 0.1710895424 0.17869198257 0.18867252652 0.20018717508 0.212035615 0.22286330886 0.23161678088 0.23780155209 
0.24160371884 0.24391983315 0.246244252 0.25044523347 0.25867884532 0.27329399831 0.29685969662 0.33199930116 0.3809705802 
0.44412288266 0.51687275675 0.58599953768 0.62983708484 0.62857802996 0.57947584728 0.49955291525 0.41194684673 0.33284987429 
0.268922913 0.22082592805 0.18669839257 0.16384192764 0.14934301367 0.14047112032 0.13486576146 0.13097161675 0.1280354743 
0.12610668217 0.12563505658 0.12732355101 0.13164850244 0.13879365367 0.14858522217 0.16053931121 0.17406772986 0.18840448875 
0.20273192434 0.21605356892 0.22737169739 0.23560595877 0.23997737338 0.23996084036 0.23554008851 0.22716365209 0.21562337922 
0.20190743091 0.18694242802 0.17160976673 0.1564700929 0.14200431247 0.12845648397 0.11591179332 0.10446837967 0.094157184749 
0.08496805866 0.076862368197 0.069889982763 0.064039188994 0.059480800754 0.05650015294 0.055654376805 0.05763533331 0.063036009812 
0.072011138013 0.084374741072 0.099716971677 0.11759718148 0.13755467991 0.15919917605 0.18197029159 0.205153354 0.22780973294 
0.24854187495 0.26567084601 0.27734333768 0.28185507145 0.27801645072 0.26562184494 0.2454745896 0.21932059085 0.18937246693 
0.15799331353 0.12742768619 0.099721238756 0.076777789753 0.059952200621 0.049150175452 0.041800784113 0.034377677862 0.02463237093 
0.012263640399 0 
Torsion 1 128 double
0 0 -0.052005788184 -0.066406024528 -0.077402509271 -0.08459493206 -0.088521505012 -0.090458703854 -0.092148041207 
-0.095562446491 -0.10283529553 -0.11637882739 -0.13920318955 -0.1747045195 -0.22623218572 -0.29393803889 -0.36685667936 -0.41518737625 
-0.40297895596 -0.32624971305 -0.21777655219 -0.10907678424 -0.012497772366 0.071730660189 0.14632734095 0.2124938098 0.26784134881 
0.3069033078 0.32449194697 0.31957793855 0.29700872918 0.26508195164 0.23111666959 0.20011193894 0.17449468403 0.15500845235 
0.14163252841 0.13380831375 0.13077706505 0.13135902911 0.13401613769 0.13727043544 0.13996910386 0.14151341575 0.14215809594 
0.14272960905 0.14446072341 0.14874699213 0.15736559016 0.17254223772 0.19581111343 0.22809805256 0.26976883395 0.31968790414 
0.37493245587 0.42896843774 0.47099781991 0.49034443867 0.48452284394 0.46220422895 0.43689291239 0.41753158933 0.40753234772 
0.40309237892 0.39725256133 0.38188518005 0.35303565411 0.31220370602 0.26493430837 0.21781803767 0.17529265048 0.13963333793 
0.11125790986 0.089879740067 0.074662729139 0.064835454262 0.059534616432 0.058214457663 0.060422892859 0.065687699242 0.073913756256 
0.085039003255 0.099034099373 0.11580791303 0.1355073222 0.15837487881 0.1841846024 0.21316284933 0.24548497517 0.28096713845 
0.31945105758 0.36095534081 0.40595474714 0.4554439228 0.50853330075 0.56073795198 0.59569007916 0.58970932457 0.53303195008 
0.44264695993 0.34413593486 0.25498245495 0.17982000976 0.11839861618 0.06842155746 0.027354742139 -0.0065156030555 -0.03447237093 
-0.05740020692 -0.076137580946 -0.09121104934 -0.10355551152 -0.1142870008 -0.12487048885 -0.13749665143 -0.15492495057 -0.18141863621 
-0.22282438512 -0.28762156909 -0.38516600187 -0.51223724234 -0.62168519228 -0.62237170167 -0.50096297632 -0.34505961735 -0.21562829854 
0 0 
Abscissas 1 128 double
0 0.5027441215 1.005488243 1.5082332796 2.0109783911 2.5137199872 3.0164614538 3.5192100056 4.0219589502 
4.5246993112 5.0274390199 5.5301849709 6.0329315127 6.5356767768 7.0384218977 7.5411649582 8.0439077485 8.5466499915 
9.0493921504 9.5521401005 10.05488908 10.557632847 11.060375557 11.563117827 12.065859996 12.568607162 13.071355588 
13.574108207 14.076861993 14.579597896 15.082328332 15.585077743 16.0878335 16.590577159 17.093316425 17.596058643 
18.098802018 18.60154594 19.104290093 19.607028673 20.109764724 20.612519587 21.115283661 21.618021704 22.120746028 
22.623492005 23.126250236 23.628999005 24.131742076 24.634484166 25.137225648 25.639969694 26.142715289 26.645458807 
27.148201002 27.650943805 28.153687022 28.656432698 29.159180164 29.661923858 30.164664614 30.667407986 31.170153532 
31.672893432 32.175628317 32.678369233 33.181115887 33.683862779 34.186609915 34.68935599 35.192100904 35.694846768 
36.197593744 36.700330564 37.203054683 37.705792911 38.208549956 38.711295014 39.214023068 39.716758842 40.219506282 
40.722257173 41.225013633 41.727763775 42.230502975 42.733243399 43.235986104 43.738729007 44.241472308 44.744218656 
45.246971659 45.749719471 46.252454958 46.755191996 47.25793305 47.760678185 48.263434887 48.766188492 49.268932459 
49.771675792 50.274416954 50.777157336 51.279894742 51.782633585 52.285378554 52.788126508 53.290888762 53.793647073 
54.296384137 54.799117915 55.301831709 55.804550737 56.307305756 56.810059634 57.312804568 57.815551247 58.318313805 
58.821074912 59.323820124 59.826563907 60.329287738 60.832012805 61.334762232 61.837511463 62.340254615 62.84299657 
63.345719879 63.848443189 
ParallelTransportNormals 3 128 double
0.38774476817 0 0.92176677894 0.41903166606 -0.0089761397744 0.90717320439 0.45031856395 -0.017952279549 0.89257962984 
0.4643960471 -0.021053642205 0.8852624517 0.4770651302 -0.023674219403 0.87854076604 0.47751052746 -0.023766854222 0.87830452167 
0.47750618069 -0.023766478879 0.87830689505 0.4631838372 -0.025060867803 0.88574068745 0.44806780462 -0.026427029356 0.89358642548 
0.41900400147 -0.035873546021 0.90661369118 0.38888015542 -0.045934176814 0.92003475757 0.35412434191 -0.067306690571 0.93176132238 
0.31893010802 -0.089749885439 0.9433275009 0.28971939163 -0.11656233678 0.94914886988 0.26117921703 -0.14386442803 0.95432644785 
0.23795586231 -0.17076240722 0.95550336344 0.21542995407 -0.19760737606 0.95615548265 0.1908946926 -0.22785507259 0.95397795811 
0.16605105158 -0.25862499268 0.95136616237 0.13019782367 -0.2983013993 0.94386855199 0.092387725417 -0.33956086615 0.93550252521 
0.036202599526 -0.38884676916 0.91705017037 -0.023707598638 -0.43975982916 0.89655306753 -0.09727838643 -0.48802441969 0.86197068243 
-0.17395878452 -0.53568612937 0.82418201267 -0.24802217917 -0.57250524418 0.77576830759 -0.32142515394 -0.60658815114 0.72467329741 
-0.38069131361 -0.63160046097 0.67067914908 -0.43602523429 -0.6540897304 0.61587858827 -0.47570330477 -0.67251928226 0.56338850553 
-0.51059491304 -0.68970765689 0.51160480513 -0.53229416537 -0.70580256937 0.46481812864 -0.54958004519 -0.72153167487 0.4197031572 
-0.55710771814 -0.73658432868 0.38166903121 -0.56109172585 -0.75139133097 0.34620629422 -0.55953595572 -0.76463370303 0.31864676278 
-0.55581024673 -0.7772632072 0.29418292819 -0.55022642958 -0.7877517659 0.27634544462 -0.54385954684 -0.79733806242 0.26130051506 
-0.53780031169 -0.80475518672 0.25101757933 -0.53188075671 -0.81118744928 0.2428967151 -0.52760603388 -0.81539028081 0.23820741483 
-0.5241365565 -0.81850167013 0.23519807399 -0.52422630549 -0.81856999382 0.23478413015 -0.52619195197 -0.81703446359 0.23573809558 
-0.53692327976 -0.80953853066 0.23672710177 -0.55261546322 -0.79866936336 0.23773593895 -0.58304772803 -0.77953407459 0.22381742005 
-0.62235509726 -0.75542169719 0.20091103733 -0.65591146405 -0.73597800208 0.15511819327 -0.68590579182 -0.7194259817 0.095149999972 
-0.70039422883 -0.71045552175 0.03224213277 -0.70551335387 -0.70606615977 -0.032442009161 -0.70087604357 -0.703353472 -0.099567462668 
-0.69003425985 -0.70170704259 -0.16824543534 -0.66963953069 -0.6977984236 -0.24258886329 -0.6427526947 -0.6923524383 -0.32078249025 
-0.60629902928 -0.68042789279 -0.40221646409 -0.56287995084 -0.66378643999 -0.48600966827 -0.51593981819 -0.63943254562 -0.56374123475 
-0.46625680398 -0.60907070234 -0.63675081933 -0.42320627981 -0.57719319639 -0.69566148532 -0.38567261626 -0.54405497243 -0.74284476567 
-0.35869020463 -0.5170421506 -0.77654763991 -0.34108226086 -0.4954715631 -0.79827358147 -0.33074807905 -0.48194320743 -0.81134625307 
-0.32733331068 -0.4760652983 -0.81618720735 -0.32699605786 -0.47679247406 -0.81588693932 -0.32979642928 -0.48425374229 -0.81034503292 
-0.33270693426 -0.49673410295 -0.80137269855 -0.33573776315 -0.51469795888 -0.78865252815 -0.33661255624 -0.53652019169 -0.77336875008 
-0.33496525035 -0.56285589703 -0.75508610146 -0.32918389951 -0.5916936142 -0.73511838122 -0.31823335747 -0.6236598357 -0.71304365501 
-0.30217779428 -0.65586252704 -0.69073187168 -0.27931378913 -0.68838059241 -0.66810393106 -0.25238025139 -0.7187275987 -0.64674639087 
-0.21967291716 -0.74599433642 -0.62719127723 -0.18491928194 -0.77011792796 -0.60943672708 -0.14707415819 -0.78949295103 -0.59440241283 
-0.10847082693 -0.80605949512 -0.58081056054 -0.068643669134 -0.81809285927 -0.56954699328 -0.028202915075 -0.82794638182 -0.559103577 
0.013300487669 -0.83402477416 -0.55008052848 0.055561746574 -0.83825520609 -0.54137965334 0.099236843643 -0.83903812768 -0.53327981706 
0.14347382526 -0.83811881713 -0.52514101769 0.18884355073 -0.83376785329 -0.51692366981 0.23405981875 -0.82799608201 -0.50840304941 
0.27894084899 -0.81912046428 -0.49921991045 0.32263312771 -0.80944943316 -0.48961378356 0.36350332946 -0.79789010346 -0.4790034901 
0.40194913172 -0.78649541504 -0.46823231258 0.43411764744 -0.77552701794 -0.45704457198 0.4626415998 -0.76570784512 -0.44659923181 
0.48083850067 -0.75914505646 -0.4382575202 0.49466267394 -0.75416072675 -0.43191481604 0.49487927477 -0.75408843286 -0.43179286042 
0.49073848213 -0.75514332871 -0.43441699663 0.47162649038 -0.76007104034 -0.44647619715 0.44827475234 -0.76507447087 -0.46137218881 
0.4087412513 -0.77036689629 -0.48709530993 0.36514480253 -0.77420117972 -0.51524482315 0.30421945376 -0.77181633392 -0.55374315417 
0.24020936364 -0.76615207289 -0.59370531674 0.16142470401 -0.74478083909 -0.64067859579 0.082119935878 -0.71911456109 -0.68763215313 
1.1650761431e-05 -0.67029690337 -0.73447940544 -0.079549669817 -0.61834346061 -0.78007740723 -0.14362457634 -0.54732337404 -0.81807953941 
-0.20385587943 -0.47587919466 -0.85453161517 -0.23765496048 -0.4015185553 -0.88032404924 -0.26854121485 -0.32903632138 -0.90489773877 
-0.27661022573 -0.27126832863 -0.91992455368 -0.28355723477 -0.21604709866 -0.93419061318 -0.28028850871 -0.18401393569 -0.9415300569 
-0.27714242415 -0.15412646455 -0.94838264531 -0.27534024087 -0.1477514091 -0.94990029034 -0.27416227582 -0.14309691247 -0.95094580368 
-0.2817036767 -0.16247596845 -0.94539636572 -0.28986189767 -0.18344583651 -0.93914302644 -0.31018192025 -0.23578164265 -0.91901091077 
-0.33059032234 -0.29079830854 -0.89696977632 -0.35375606965 -0.42945490837 -0.81536931388 -0.37552422114 -0.55974631785 -0.73869182952 
-0.37552422114 -0.55974631785 -0.73869182952 -0.37552422114 -0.55974631785 -0.73869182952 
FrenetTangent 3 128 double
-0.88783448975 0.16009164375 0.4314169496 -0.88783448975 0.16009164375 0.4314169496 -0.89008607851 0.14368064487 0.43255363267 
-0.89347495944 0.11709783181 0.43357882171 -0.8975850884 0.080409710985 0.43344582991 -0.9017773848 0.033821049431 0.43087548651 
-0.90516701528 -0.022193111779 0.42447631293 -0.90664471793 -0.08671428691 0.41288737919 -0.9049796231 -0.15819916303 0.39494924559 
-0.89902892578 -0.23435693538 0.36989703629 -0.88803687794 -0.31217873097 0.337542506 -0.87194039907 -0.38819043216 0.29837581814 
-0.85154899932 -0.45890708281 0.2535125068 -0.8284895392 -0.5213459501 0.20445900261 -0.80490113988 -0.57340628441 0.15277234053 
-0.78299414664 -0.61398239803 0.0997285377 -0.76462573799 -0.64282256139 0.046115456961 -0.75099473209 -0.66026203342 -0.007807662792 
-0.74248874031 -0.66696281588 -0.062217945524 -0.73865527248 -0.66375351277 -0.1175570616 -0.73826704124 -0.65159148634 -0.17432816969 
-0.73946277627 -0.63162261239 -0.23291130937 -0.73995566788 -0.60528055208 -0.2934298261 -0.73729562924 -0.57435589755 -0.35568308654 
-0.72914492437 -0.54097565221 -0.41915751573 -0.7135092637 -0.50747528019 -0.48308733229 -0.68886894949 -0.47618993826 -0.546537019 
-0.65420258161 -0.44921841861 -0.60845853975 -0.60894040257 -0.42822366211 -0.66769460184 -0.55289736751 -0.41430610494 -0.72294878962 
-0.48624533753 -0.40794984523 -0.77274989195 -0.40955471173 -0.40903184221 -0.8154495019 -0.32385761006 -0.41688603875 -0.84930694045 
-0.23070258663 -0.43040882983 -0.87265374332 -0.13213905328 -0.4482141587 -0.88410595436 -0.030559282675 -0.46882423567 -0.88276268968 
0.071557672739 -0.49085912974 -0.86829534965 0.1719393257 -0.51318990304 -0.84087632366 0.2687641179 -0.53501420118 -0.80095296582 
0.36075992419 -0.55584444861 -0.74892538083 0.44713754886 -0.57541007128 -0.68481476493 0.5273672957 -0.59349411986 -0.60798722447 
0.60080792854 -0.60972348116 -0.51697882891 0.66618594834 -0.62330594101 -0.40949479379 0.72093811634 -0.63271048434 -0.28271129341 
0.76048542376 -0.63534524477 -0.13415789281 0.77780093197 -0.627454355 0.036424478275 0.76419662838 -0.60475331488 0.22422520223 
0.71248619724 -0.56437690652 0.41694379252 0.62201301793 -0.50765194461 0.59614537544 0.50150620118 -0.44129153169 0.74414603018 
0.3659126779 -0.37500158651 0.85175214837 0.2296666249 -0.31740718462 0.92005756372 0.1023138356 -0.27374322476 0.95634540096 
-0.011681110778 -0.24600125064 0.9691991211 -0.11111667302 -0.23410742565 0.96583994442 -0.1962797583 -0.23694041664 0.95149014469 
-0.26784226144 -0.25289051451 0.92968108008 -0.32634802044 -0.28008090088 0.90280211482 -0.37210457459 -0.31644148146 0.87258407869 
-0.40524588464 -0.35976842753 0.84044181925 -0.42586496301 -0.40781403607 0.80766747196 -0.4341475615 -0.45840257623 0.77548886062 
-0.43042068948 -0.50956977889 0.74503467739 -0.41515315486 -0.55964582108 0.71724780443 -0.38889489726 -0.60728531048 0.69279528763 
-0.3522039812 -0.65143829466 0.67199739871 -0.30559267886 -0.69125729575 0.65481025168 -0.24950702553 -0.72600164093 0.64083372382 
-0.18437818861 -0.75493261065 0.62935001147 -0.11069854618 -0.77724265886 0.61938653612 -0.029142252824 -0.79202418577 0.60979375059 
0.059301737441 -0.79829221656 0.59934367513 0.1532072316 -0.79507346953 0.58684386529 0.25064789056 -0.7815507109 0.57127412093 
0.34921938776 -0.75724791527 0.55192518881 0.44619317507 -0.72220406484 0.5285195732 0.53878280512 -0.67708109194 0.50127266417 
0.62445190595 -0.6231600044 0.47088366512 0.70121069299 -0.56220696326 0.43843687629 0.76779457912 -0.49625794869 0.40524009259 
0.82369850821 -0.42737227002 0.3726576316 0.86907765286 -0.35743626208 0.34196981131 0.90458022727 -0.28803715854 0.31427568748 
0.93115388869 -0.22043374655 0.2904503382 0.94988111861 -0.15558321667 0.27114520684 0.96186118842 -0.094192385346 0.25680897326 
0.96813462162 -0.036820441051 0.24770871914 0.96965468845 0.016064367332 0.24395024343 0.9672806621 0.064047343081 0.24549146332 
0.9617866349 0.10672064907 0.25214514072 0.95388264906 0.14365767541 0.26357231287 0.94423398485 0.17442812933 0.27927944708 
0.93347707407 0.19860243963 0.2986262265 0.92222964204 0.2157676842 0.32083764399 0.91108742913 0.22554813646 0.34503294716 
0.90060947826 0.22760141784 0.37027039076 0.89128402054 0.22162180317 0.39559647506 0.88347378899 0.20733589365 0.42010223918 
0.87735425106 0.18448442117 0.44296164224 0.87284388418 0.15280211072 0.46345988911 0.86953040007 0.1120204357 0.48100759385 
0.86661708921 0.061891671045 0.49512043155 0.8628764841 0.0022633459618 0.50540978467 0.8566425233 -0.066827086629 0.51156400163 
0.8458527459 -0.14500784203 0.51332821664 0.82815351519 -0.23137992218 0.51051453151 0.80109688386 -0.32435692393 0.5030272046 
0.76244542407 -0.42151873389 0.49091642089 0.71057956298 -0.51958259124 0.47445823372 0.64493372166 -0.61459158323 0.4542440759 
0.56636589719 -0.70232935099 0.43123445274 0.47730480358 -0.77892514433 0.4067625155 0.38155624873 -0.84151688913 0.38244496906 
0.2837731983 -0.88874384636 0.36000992693 0.18873552565 -0.92088830918 0.34109181078 0.10067062369 -0.93963408878 0.32703700819 
0.022798124659 -0.94755602422 0.31877551109 -0.042857039385 -0.94754279486 0.31674268118 -0.09542131634 -0.94231022935 0.32085230879 
-0.13502777307 -0.934099569 0.33049280733 -0.16264940496 -0.92458017547 0.3445238311 -0.17995045355 -0.91490852877 0.3613311753 
-0.18912581431 -0.90588561997 0.37894942921 -0.19267827667 -0.89813293978 0.39526232324 -0.19310659917 -0.89219228738 0.40829249772 
-0.19250902077 -0.8885338881 0.41647065517 -0.19250902077 -0.8885338881 0.41647065517 
FrenetNormal 3 128 double
-0.13756412521 -0.98699590469 0.083157654973 -0.13756412521 -0.98699590469 0.083157654973 -0.13108428262 -0.9896151804 0.058980552452 
-0.11933059296 -0.99260698178 0.02217181334 -0.10127506451 -0.99453869025 -0.025222111582 -0.075929505756 -0.99382561461 -0.080903386208 
-0.042631679199 -0.9888603808 -0.14261026337 -0.0012964367177 -0.97807246677 -0.20826081963 0.047272154849 -0.95993960506 -0.27619069139 
0.10120473821 -0.93306156496 -0.34518649592 0.15749030635 -0.89627711246 -0.41458912321 0.21208437382 -0.84872984749 -0.48443561426 
0.26010199528 -0.78963768104 -0.55571511112 0.29594474232 -0.71756075422 -0.63049446746 0.31340269842 -0.62938530838 -0.71109273813 
0.30549730734 -0.51923679936 -0.7981632298 0.26612173254 -0.38009599324 -0.88583647441 0.19546985167 -0.21100578552 -0.95774114225 
0.10815347993 -0.027698343642 -0.99374827121 0.03079780074 0.14098249518 -0.98953293605 -0.014953966489 0.27420000697 -0.96155641284 
-0.021939880135 0.36840510418 -0.92940643471 0.0075554508533 0.42871951094 -0.90340605273 0.068677950234 0.46004209287 -0.88523703715 
0.15650997329 0.46443451752 -0.87166806021 0.26588948323 0.44179294271 -0.85680906769 0.3901387797 0.39189458574 -0.83319287457 
0.51993694813 0.31712556061 -0.79315632052 0.64405691194 0.22442474926 -0.73131677548 0.7523434854 0.12472653772 -0.6468559119 
0.83884363838 0.029782808121 -0.54355711262 0.90258657739 -0.0516820153 -0.4273949457 0.9456728481 -0.11548178864 -0.30391910248 
0.97089673991 -0.16110178613 -0.17721663281 0.98044139004 -0.19034384013 -0.050039017026 0.97564031606 -0.2059393573 0.07559732004 
0.95723188094 -0.21086913144 0.19809425916 0.92564018849 -0.20791832574 0.31616484826 0.88113206624 -0.19932082056 0.42880938929 
0.82375876496 -0.18664785994 0.53533547755 0.75342602746 -0.17036036873 0.63507996812 0.66976993394 -0.14989759125 0.72728189014 
0.57215331836 -0.12365785333 0.81077081571 0.45949563553 -0.089437433718 0.88366549462 0.33040120753 -0.044783565159 0.94277753174 
0.1834288231 0.011998413738 0.9829597677 0.018579429807 0.080882264681 0.99655048244 -0.16049856692 0.15840697281 0.97424198276 
-0.34422634928 0.2366612607 0.90857012285 -0.51817009114 0.303918374 0.79945817814 -0.66860714674 0.34817189102 0.65706987271 
-0.78851542394 0.36120088774 0.49777238262 -0.87871709894 0.33882334812 0.33623652211 -0.94306276561 0.27918107314 0.18080527793 
-0.98285819278 0.18117462249 0.034139845537 -0.99360679971 0.045694383553 -0.10323541488 -0.96586421545 -0.12058342431 -0.22927266538 
-0.89109147056 -0.30189381296 -0.3388452697 -0.76923494006 -0.47636915499 -0.42585212829 -0.61049529621 -0.6246920743 -0.48688325665 
-0.42858986164 -0.73726280799 -0.52225882706 -0.23483799344 -0.81224795384 -0.53395166291 -0.036393752017 -0.85122121532 -0.52354363467 
0.16139266108 -0.8555515367 -0.49191866908 0.35122603446 -0.82587203982 -0.44110729597 0.52408446412 -0.76428855178 -0.37576386746 
0.67064560668 -0.67648922803 -0.30429721426 0.78603237284 -0.57126812642 -0.23623259002 0.87051329442 -0.45804936698 -0.17999272665 
0.92855410935 -0.3436882942 -0.14023416998 0.96554002603 -0.23180453133 -0.11831786587 0.98591300765 -0.12329429703 -0.11302237686 
0.99236947334 -0.017874472895 -0.12199726063 0.98617353757 0.085057722943 -0.14222143847 0.96769654329 0.18570241813 -0.17052276097 
0.93703806678 0.28368421718 -0.20367357789 0.8945121494 0.37809029451 -0.23852828713 0.84095057211 0.4676795617 -0.27217267099 
0.77778760251 0.55127649092 -0.30189514064 0.70694680425 0.62794978167 -0.32543092609 0.63059347824 0.6972047313 -0.340965435 
0.5508149342 0.75911071581 -0.34692049437 0.4693986092 0.8140337711 -0.34207304072 0.38764479791 0.86252312235 -0.32524663576 
0.30637250411 0.90490699248 -0.29543057337 0.22590310486 0.9411654796 -0.25134702548 0.14621299272 0.97050758083 -0.19166845412 
0.067205529886 0.9910488621 -0.11534977105 -0.011223859079 0.99971184013 -0.021219370698 -0.088765092128 0.99188953004 0.090972075991 
-0.16445588731 0.96145332767 0.22036732933 -0.23621588406 0.90103785911 0.36377579987 -0.30064773093 0.80260976295 0.51519754493 
-0.35279804306 0.65815806137 0.66510262898 -0.38589824416 0.46219872266 0.79840771911 -0.39197812912 0.21501354065 0.89449556937 
-0.36441265697 -0.068858450745 0.9286882842 -0.30429284673 -0.35448306767 0.88416492702 -0.2258665811 -0.59711890602 0.76969688814 
-0.15001105347 -0.77141435909 0.61839839135 -0.09286659287 -0.8803486173 0.46514740453 -0.060929285765 -0.94216594751 0.32956175369 
-0.054364107589 -0.97465887802 0.21698989678 -0.071271463943 -0.98945251993 0.12611141597 -0.10892473013 -0.99265058787 0.052727730554 
-0.1647955063 -0.98630242145 -0.0070692669632 -0.23621201572 -0.97005887985 -0.056477015256 -0.32011632005 -0.94231537386 -0.09781246248 
-0.41288217297 -0.90109975211 -0.13246715814 -0.51019650602 -0.84483801762 -0.16108460273 -0.60733561669 -0.77295813833 -0.18351884122 
-0.69937992304 -0.68638791066 -0.19934733343 -0.78210684622 -0.58759453646 -0.20746455558 -0.85230777694 -0.48042759097 -0.20678680614 
-0.90848827697 -0.36931025826 -0.19559903821 -0.95061053387 -0.25847631227 -0.17184181359 -0.97967703916 -0.15093804268 -0.13210074264 
-0.99631935472 -0.047888824826 -0.071094330708 -0.99847248879 0.051686810933 0.019523388795 -0.97699392036 0.15041332888 0.15119097218 
-0.9093343495 0.24930336436 0.3331048984 -0.76250695134 0.33938741331 0.55081696855 -0.53201984832 0.39948857214 0.74656798868 
-0.28198810478 0.41976329632 0.86271749943 -0.083377349304 0.41633826419 0.90537874251 0.044183496335 0.40779561312 0.91200359461 
0.11046447753 0.4020892768 0.908912434 0.11046447753 0.4020892768 0.908912434 
FrenetBinormal 3 128 double
0.43911960814 0.014482738899 0.89831187236 0.43911960814 0.014482738899 0.89831187236 0.43653600504 -0.0042032139942 0.89967696941 
0.43296963685 -0.031929257863 0.90084283649 0.42905054527 -0.06653624564 0.90082659686 0.42547885777 -0.10567300677 0.89877747926 
0.42291277396 -0.14718224444 0.89413766979 0.42189296593 -0.18935385443 0.88665181617 0.42282055904 -0.2312768459 0.87620419732 
0.42603355687 -0.2728973119 0.86256736872 0.43195752897 -0.31501075792 0.84509225269 0.44129373308 -0.35911813426 0.82237096665 
0.4552046285 -0.40727953794 0.791777825 0.47541749329 -0.46184950397 0.74878117147 0.50389771149 -0.52448009171 0.68630002896 
0.54184090057 -0.59449033726 0.59412934397 0.58696397187 -0.66506104268 0.4617002331 0.63071265205 -0.72078471523 0.2875255551 
0.66106981121 -0.7445759894 0.0927000578 0.67337945017 -0.73454421946 -0.083695314968 0.67434275758 -0.70727851029 -0.21217670511 
0.67283983545 -0.68215141628 -0.28627958554 0.67261320589 -0.67069742374 -0.31266026458 0.67207030455 -0.67710898365 -0.29974143859 