# vtk DataFile Version 4.2
vtk output
ASCII
DATASET POLYDATA
POINTS 128 float
0 0 0 -0.273007 0.0479631 0.232301 -0.780919 0.129615 0.655722 
-1.20272 0.17658 0.983212 -1.58293 0.18317 1.23685 -2.00642 0.15354 1.47621 
-2.46556 0.0928665 1.70215 -2.92675 0.00453218 1.89663 -3.38733 -0.117294 2.05088 
-3.851 -0.278828 2.15977 -4.31196 -0.476025 2.22401 -4.76247 -0.702061 2.2463 
-5.19959 -0.952053 2.23029 -5.62211 -1.22178 2.17996 -6.02965 -1.50717 2.09965 
-6.42236 -1.8044 1.99375 -6.8016 -2.11047 1.86637 -7.16911 -2.42283 1.72136 
-7.52632 -2.73975 1.56133 -7.87451 -3.0598 1.38828 -8.21481 -3.3818 1.20354 
-8.54818 -3.70466 1.008 -8.87517 -4.02734 0.801719 -9.1961 -4.34881 0.584279 
-9.51081 -4.66781 0.354479 -9.81892 -4.98289 0.11064 -10.1194 -5.29187 -0.149927 
-10.4109 -5.59215 -0.43035 -10.6915 -5.88025 -0.733753 -10.9588 -6.15236 -1.06295 
-11.2113 -6.40517 -1.41831 -11.4474 -6.636 -1.79874 -11.6678 -6.84558 -2.20045 
-11.8743 -7.03647 -2.61837 -12.0689 -7.21286 -3.04809 -12.2542 -7.3798 -3.4856 
-12.432 -7.54234 -3.92782 -12.6036 -7.70547 -4.37224 -12.7695 -7.87332 -4.8171 
-12.9292 -8.04943 -5.26104 -13.0816 -8.23659 -5.70303 -13.2251 -8.43706 -6.14222 
-13.3573 -8.65255 -6.57782 -13.4756 -8.88435 -7.00909 -13.5767 -9.13313 -7.43524 
-13.6573 -9.39911 -7.85542 -13.7136 -9.68179 -8.26861 -13.7418 -9.98016 -8.67366 
-13.7383 -10.2925 -9.06904 -13.6997 -10.6167 -9.45301 -13.6234 -10.9497 -9.82354 
-13.5073 -11.2882 -10.1784 -13.3512 -11.6289 -10.5155 -13.1563 -11.9687 -10.8326 
-12.9249 -12.305 -11.1282 -12.6605 -12.636 -11.4011 -12.3667 -12.9608 -11.6504 
-12.048 -13.2795 -11.8756 -11.7082 -13.5926 -12.0763 -11.351 -13.9013 -12.2522 
-10.98 -14.207 -12.4029 -10.5983 -14.5111 -12.5277 -10.2088 -14.8152 -12.6255 
-9.81413 -15.1204 -12.6951 -9.41704 -15.4279 -12.7346 -9.02029 -15.7385 -12.742 
-8.62696 -16.0522 -12.7146 -8.2404 -16.3688 -12.649 -7.8646 -16.6872 -12.5417 
-7.50426 -17.0052 -12.3889 -7.1655 -17.3194 -12.1865 -6.85595 -17.6247 -11.9305 
-6.58356 -17.9152 -11.6203 -6.35647 -18.1846 -11.2589 -6.18057 -18.428 -10.8529 
-6.059 -18.6421 -10.4125 -5.9917 -18.8267 -9.94776 -5.9748 -18.9845 -9.46896 
-6.00357 -19.1196 -8.98418 -6.07243 -19.2369 -8.49885 -6.17607 -19.3411 -8.01696 
-6.30966 -19.4375 -7.54085 -6.46872 -19.5307 -7.07212 -6.64927 -19.6254 -6.61152 
-6.84757 -19.7257 -6.15957 -7.06015 -19.8359 -5.71648 -7.28361 -19.96 -5.28248 
-7.51453 -20.1016 -4.85784 -7.74941 -20.2641 -4.44293 -7.98456 -20.4503 -4.03826 
-8.21621 -20.6625 -3.6444 -8.4405 -20.9017 -3.26197 -8.65386 -21.1683 -2.89149 
-8.85331 -21.4611 -2.5333 -9.03639 -21.7784 -2.18749 -9.20157 -22.1177 -1.85372 
-9.34787 -22.4761 -1.53137 -9.47523 -22.8505 -1.21942 -9.58392 -23.2382 -0.916698 
-9.67472 -23.6364 -0.621944 -9.74856 -24.0428 -0.333884 -9.80657 -24.4556 -0.0512785 
-9.84981 -24.8731 0.227016 -9.87911 -25.2941 0.501939 -9.89507 -25.7173 0.774344 
-9.89799 -26.142 1.04495 -9.88796 -26.5673 1.31442 -9.8648 -26.9925 1.58332 
-9.82815 -27.4167 1.85226 -9.77736 -27.839 2.12191 -9.71173 -28.2584 2.39295 
-9.63044 -28.6736 2.66614 -9.53262 -29.0831 2.94243 -9.41715 -29.4849 3.2234 
-9.28307 -29.8764 3.51068 -9.12993 -30.2546 3.80587 -8.9574 -30.6162 4.1107 
-8.76526 -30.9583 4.42739 -8.55377 -31.2761 4.75816 -8.32452 -31.5584 5.10503 
-8.07888 -31.7973 5.47003 -7.81652 -31.9991 5.85552 -7.54156 -32.1674 6.25762 
-7.27595 -32.2849 6.64919 -7.02498 -32.3358 7.02858 -6.73557 -32.3225 7.48073 
-6.38323 -32.2591 8.0429 -6.19362 -32.2171 8.34761 
LINES 1 129
128 0 1 2 3 4 5 6 7 8 9 10 11 12 13 14 15 16 17 18 19 20 21 22 23 24 25 26 27 28 29 30 31 32 33 34 35 36 37 38 39 40 41 42 43 44 45 46 47 48 49 50 51 52 53 54 55 56 57 58 59 60 61 62 63 64 65 66 67 68 69 70 71 72 73 74 75 76 77 78 79 80 81 82 83 84 85 86 87 88 89 90 91 92 93 94 95 96 97 98 99 100 101 102 103 104 105 106 107 108 109 110 111 112 113 114 115 116 117 118 119 120 121 122 123 124 125 126 127 

CELL_DATA 1
FIELD FieldData 2
Length 1 1 double
61.218166283 
Tortuosity 1 1 double
0.8083848478 
POINT_DATA 128
SCALARS MaximumInscribedSphereRadius float
LOOKUP_TABLE default
1.24 1.18702 1.13491 1.08743 1.03996 1.04112 1.04905 1.13615 1.22503 
1.36268 1.504 1.50843 1.50041 1.47083 1.43888 1.43054 1.42529 1.45696 
1.49419 1.52993 1.5654 1.53119 1.48357 1.42974 1.37458 1.32198 1.26999 
1.23084 1.19503 1.2121 1.24426 1.32894 1.43004 1.53271 1.63592 1.72562 
1.81036 1.87154 1.92338 1.9239 1.90254 1.8525 1.78933 1.69776 1.59225 
1.48611 1.37965 1.30915 1.2589 1.24 1.24 1.24293 1.24775 1.25383 
1.26078 1.28671 1.32667 1.41424 1.53936 1.67067 1.80716 1.9132 1.99197 
2.0585 2.11338 2.1476 2.16087 2.11692 2.01109 1.88795 1.74481 1.66804 
1.67377 1.69603 1.74043 1.7675 1.76966 1.74365 1.67387 1.61867 1.58782 
1.56483 1.55588 1.55648 1.57534 1.60364 1.65125 1.70434 1.76948 1.82048 
1.83818 1.85216 1.85668 1.86 1.86 1.85962 1.85811 1.85409 1.84192 
1.80837 1.69909 1.58987 1.48087 1.38458 1.34247 1.31917 1.38466 1.44693 
1.49225 1.52089 1.4511 1.38117 1.31034 1.2468 1.23949 1.2422 1.33654 
1.42413 1.4379 1.44688 1.39352 1.34128 1.33259 1.33101 1.38171 1.43242 
1.5047 1.581 
TEXTURE_COORDINATES TCoords 2 float
0 0 0.00787402 0 0.015748 0 0.023622 0 0.0314961 
0 0.0393701 0 0.0472441 0 0.0551181 0 0.0629921 0 
0.0708661 0 0.0787402 0 0.0866142 0 0.0944882 0 0.102362 
0 0.110236 0 0.11811 0 0.125984 0 0.133858 0 
0.141732 0 0.149606 0 0.15748 0 0.165354 0 0.173228 
0 0.181102 0 0.188976 0 0.19685 0 0.204724 0 
0.212598 0 0.220472 0 0.228346 0 0.23622 0 0.244094 
0 0.251969 0 0.259843 0 0.267717 0 0.275591 0 
0.283465 0 0.291339 0 0.299213 0 0.307087 0 0.314961 
0 0.322835 0 0.330709 0 0.338583 0 0.346457 0 
0.354331 0 0.362205 0 0.370079 0 0.377953 0 0.385827 
0 0.393701 0 0.401575 0 0.409449 0 0.417323 0 
0.425197 0 0.433071 0 0.440945 0 0.448819 0 0.456693 
0 0.464567 0 0.472441 0 0.480315 0 0.488189 0 
0.496063 0 0.503937 0 0.511811 0 0.519685 0 0.527559 
0 0.535433 0 0.543307 0 0.551181 0 0.559055 0 
0.566929 0 0.574803 0 0.582677 0 0.590551 0 0.598425 
0 0.606299 0 0.614173 0 0.622047 0 0.629921 0 
0.637795 0 0.645669 0 0.653543 0 0.661417 0 0.669291 
0 0.677165 0 0.685039 0 0.692913 0 0.700787 0 
0.708661 0 0.716535 0 0.724409 0 0.732283 0 0.740157 
0 0.748031 0 0.755906 0 0.76378 0 0.771654 0 
0.779528 0 0.787402 0 0.795276 0 0.80315 0 0.811024 
0 0.818898 0 0.826772 0 0.834646 0 0.84252 0 
0.850394 0 0.858268 0 0.866142 0 0.874016 0 0.88189 
0 0.889764 0 0.897638 0 0.905512 0 0.913386 0 
0.92126 0 0.929134 0 0.937008 0 0.944882 0 0.952756 
0 0.96063 0 0.968504 0 0.976378 0 0.984252 0 
0.992126 0 1 0 
FIELD FieldData 7
Curvature 1 128 double
0 0.033233151832 0.062377603 0.090108111187 0.11561978554 0.13796124465 0.15613743361 0.16928263601 0.17687506605 
0.17887513496 0.17577362255 0.16848002617 0.15814939442 0.14597843822 0.13306927605 0.12032961764 0.10847627711 0.098042358211 
0.089425285523 0.082893971014 0.078626967204 0.076645099589 0.076832136485 0.078868588287 0.08225002179 0.086321697415 0.090329722889 
0.093496415677 0.095108473647 0.094611672423 0.091721381692 0.086467975762 0.079219943267 0.070680351131 0.061866025029 0.054104097509 
0.048932328373 0.047744290499 0.05082029105 0.057242970515 0.06576974516 0.075425907467 0.085626560675 0.096012432297 0.10637249927 
0.11648222665 0.12610828721 0.134953834 0.14269781655 0.14899101915 0.15351898491 0.15607835343 0.15660894885 0.15521068576 
0.15221778228 0.14806400592 0.14337353966 0.13875668559 0.13490836744 0.13244149201 0.131918494 0.13370879966 0.13808699955 
0.14511730735 0.15476358322 0.16680958954 0.18091745757 0.19653509014 0.21283636615 0.22865156107 0.24248280535 0.25269044416 
0.25767044756 0.25640129448 0.24860728184 0.23493517263 0.21669664043 0.19556698352 0.17313608717 0.15082630296 0.12971095742 
0.11067034211 0.094494551328 0.081988507993 0.073891167908 0.070551467603 0.07149677952 0.075511322701 0.08110211877 0.087071679519 
0.092454933805 0.096698180833 0.099372439322 0.10039206977 0.099750928549 0.097581071598 0.094174881496 0.08985889067 0.084996610346 
0.079911052975 0.074958602898 0.070404818444 0.066484055647 0.063372719967 0.061231025776 0.060150608852 0.060203493681 0.061431448304 
0.063889722789 0.067582811978 0.072530647606 0.078760011131 0.086214140819 0.094839084974 0.10440645547 0.11460127166 0.12482827876 
0.13421515717 0.14167536565 0.14577519612 0.14521844571 0.13889581236 0.12633572826 0.10779002735 0.084198706764 0.05685194769 
0.027216302425 0 
Torsion 1 128 double
0 0 -0.0014515553614 -0.0020461462417 -0.0026968400437 -0.0034516398463 -0.0043185432482 -0.0053593484075 -0.0066916213067 
-0.0084105940401 -0.010692554913 -0.013861793231 -0.018299290983 -0.024480121162 -0.033145529974 -0.045056016811 -0.060815526079 -0.080521532341 
-0.10300887738 -0.12521726877 -0.14245736621 -0.14992183238 -0.14515987163 -0.12986151969 -0.10848972207 -0.08512198031 -0.062137150439 
-0.040625186889 -0.019825940862 0.002153917856 0.027726982547 0.060351400285 0.10548513269 0.17055606755 0.26293249816 0.37962599177 
0.48351755865 0.50031289006 0.40896557892 0.27688554833 0.16197868746 0.078628728505 0.022377375058 -0.01414619972 -0.036626440209 
-0.048854044905 -0.053349708412 -0.052151175785 -0.046701015919 -0.037856361905 -0.026194544248 -0.011992417167 0.0046366246961 0.023442233669 
0.04442755698 0.067442606409 0.091903438195 0.1165126791 0.13901242391 0.15695557513 0.16714655045 0.16785825193 0.15940594124 
0.14395463884 0.1245533853 0.1045452613 0.086226599726 0.071240173481 0.060128122074 0.052746503921 0.049015731839 0.048830523098 
0.051723352817 0.057371423809 0.066232200562 0.078440131875 0.094397941082 0.11551068793 0.14354360455 0.18045619574 0.22978709135 
0.29488363497 0.37604109796 0.46364683068 0.52885657585 0.53772880535 0.48573687157 0.40376638107 0.32434066484 0.26054939131 
0.21362490471 0.18004942538 0.15675478984 0.14097251253 0.13091298185 0.12530839558 0.12367906635 0.12521721684 0.12940780868 
0.13699828319 0.14690272084 0.15850115732 0.17164380175 0.18480959538 0.19665457378 0.20572989616 0.21127220842 0.21270295806 
0.21016939529 0.20450988489 0.19597402529 0.18507686648 0.17271254983 0.15912017838 0.14460173745 0.12961189941 0.11458161179 
0.09991424507 0.085645404349 0.072355559252 0.060083549267 0.048841258047 0.038740755107 0.02970595121 0.021710937269 0.014608620645 
0 0 
Abscissas 1 128 double
0 0.50355185565 1.0071038991 1.5106569368 2.0142099744 2.5177609914 3.0213117273 3.5248649903 4.0284183097 
4.5319694147 5.035520353 5.5390701189 6.0426197781 6.5461729929 7.0497265981 7.5532785095 8.0568301997 8.5603837462 
9.0639375725 9.5674895809 10.071041278 10.574592798 11.078144285 11.58169496 12.085245461 12.588793733 13.092341477 
13.59589038 14.099439585 14.603004618 15.106574173 15.610123176 16.113665753 16.617211129 17.120757456 17.624317157 
18.12788178 18.631435166 19.134984096 19.63853042 20.142075633 20.645626932 21.149181018 21.652737089 22.156294135 
22.659847789 23.163399658 23.666958448 24.170521135 24.674062677 25.177591468 25.681132924 26.184682567 26.688243887 
27.191813283 27.695366755 28.198908462 28.702467054 29.20603897 29.709590102 30.213123762 30.716657768 31.220192083 
31.723754309 32.227343132 32.730907407 33.234446778 33.737992056 34.241543721 34.745089538 35.248628598 35.752178231 
36.255741008 36.759302445 37.262862088 37.766419707 38.269974421 38.773525072 39.277069407 39.780618324 40.284174881 
40.787730186 41.291283255 41.79483532 42.298385466 42.801936485 43.305489287 43.809040684 44.312589003 44.816139258 
45.31969408 45.823250176 46.326809512 46.830368031 47.333924306 47.837474949 48.341008794 48.844549111 49.348110445 
49.851665394 50.355197732 50.858739096 51.362315468 51.865885176 52.369426465 52.872969075 53.376517913 53.880068599 
54.383629002 54.887189731 55.390752388 55.894311183 56.397844054 56.901379988 57.404939571 57.908497829 58.412043962 
58.915591144 59.419149796 59.922707263 60.426249335 60.929791587 61.433340856 61.93689025 62.440440559 62.943990869 
63.447547052 63.951104329 
ParallelTransportNormals 3 128 double
0.64409900134 0 0.7649421393 0.61355025511 0.0035589311826 0.78883930446 0.57911530784 0.0063497937211 0.8143542327 
0.52410461269 0.0050740661247 0.84843451432 0.46909391754 0.0037983385284 0.88251479595 0.41203193212 -0.0049301283034 0.90916494708 
0.35468470165 -0.014694946278 0.93478189096 0.2804674743 -0.037735746019 0.95554877208 0.2058737424 -0.061072839093 0.97620740951 
0.13896913749 -0.09149599936 0.98330117675 0.072643424506 -0.12245264894 0.98937368453 0.020244098096 -0.15347109462 0.98611185446 
-0.030888525307 -0.18449516109 0.98200100057 -0.068733065243 -0.21147976575 0.97387855061 -0.10511864509 -0.23802085924 0.96531564897 
-0.13103332136 -0.25908928099 0.95634964252 -0.1555794449 -0.2794424216 0.94733095006 -0.17427471309 -0.29610576685 0.93877766732 
-0.19208810213 -0.31221296204 0.93029453418 -0.20747714969 -0.3268175821 0.92176178564 -0.22245094676 -0.34116483534 0.91322053878 
-0.23810962923 -0.35665473768 0.90305223568 -0.25390000114 -0.37236434805 0.89257108296 -0.27337184622 -0.39212091018 0.87775022955 
-0.29363166976 -0.41274367741 0.8620005114 -0.32039635727 -0.44019725943 0.83741973476 -0.34870031221 -0.46926723969 0.81074923562 
-0.38273207743 -0.50394505623 0.77156973523 -0.41825772574 -0.54008546518 0.72912773409 -0.45246494019 -0.5739961023 0.67896566084 
-0.48629552477 -0.60726977259 0.62659823642 -0.51128292343 -0.63104520544 0.58111447372 -0.53350538348 -0.65185088919 0.53778297856 
-0.5468447303 -0.66415040475 0.5090630796 -0.55716936498 -0.67356313415 0.48530200027 -0.56156015526 -0.67763490402 0.47478682103 
-0.56376740909 -0.67974130726 0.46914586896 -0.56306676751 -0.6788821368 0.47121477831 -0.56121287898 -0.67684684468 0.47634135408 
-0.55854747876 -0.6733186532 0.48431861958 -0.55553611669 -0.66915401221 0.49351118474 -0.55300215679 -0.6647815913 0.50216190373 
-0.55068669553 -0.66031407313 0.51056462916 -0.54941004864 -0.65718713966 0.51597827996 -0.54864328082 -0.65471820258 0.51992480951 
-0.54851514447 -0.65520552168 0.51944787809 -0.5487229003 -0.65724770197 0.51664440006 -0.54820386554 -0.66329844006 0.50927313033 
-0.54727545823 -0.6716070411 0.4993290032 -0.54397825995 -0.68356762625 0.48624522363 -0.53925272989 -0.69773028202 0.47126829878 
-0.53187177833 -0.71312936131 0.45614172235 -0.52277420316 -0.72932773886 0.44091840215 -0.51275837843 -0.7439727919 0.4280493338 
-0.5021074165 -0.75754343748 0.41680866037 -0.49321996251 -0.76773458133 0.40889643957 -0.48563542075 -0.77542888689 0.40344334103 
-0.48189207122 -0.77917060152 0.40083958603 -0.48117977739 -0.77979335656 0.40048422643 -0.48526704044 -0.77653169502 0.40177341183 
-0.49338900375 -0.77000463691 0.40444506779 -0.50644967906 -0.75973965056 0.40732251931 -0.52393051022 -0.74612921192 0.41038415821 
-0.54615982205 -0.72870747768 0.4120708455 -0.57291397543 -0.70765394836 0.41244733725 -0.60398798045 -0.68256560874 0.40948959746 
-0.63944427681 -0.65338413916 0.40314943273 -0.67831347464 -0.62007808567 0.390824833 -0.72087345453 -0.58231162209 0.37202854186 
-0.76482164961 -0.54105594201 0.34385064974 -0.81037337197 -0.49576986815 0.30483607086 -0.85238532847 -0.45049810554 0.2557301674 
-0.88999739955 -0.40524413166 0.19408087164 -0.92008263624 -0.36387652385 0.12687635656 -0.94007875412 -0.32771827857 0.052225514783 
-0.95278332259 -0.29663924572 -0.021168887754 -0.95501716499 -0.27285400448 -0.092759033016 -0.95292723003 -0.25255566758 -0.16005349444 
-0.94411717822 -0.23767675975 -0.22067150262 -0.93340029157 -0.22455769961 -0.27691449547 -0.91950328828 -0.21437361886 -0.32586107297 
-0.90513192723 -0.20489257507 -0.37107065512 -0.88991430998 -0.19666575212 -0.40961342229 -0.87506032968 -0.18863761335 -0.44501624953 
-0.86090050815 -0.18098874948 -0.47442514012 -0.84765861013 -0.17345774416 -0.50104291195 -0.83629332294 -0.16616768988 -0.52195449615 
-0.82624861172 -0.1593049276 -0.54019212116 -0.81909895998 -0.15337890488 -0.55256770485 -0.81339329623 -0.14845398986 -0.56243987354 
-0.81109138499 -0.14588887486 -0.56641102007 -0.80988062656 -0.14472332726 -0.56845450776 -0.81144531285 -0.14711770442 -0.56559482288 
-0.81353781182 -0.1508955056 -0.5615416399 -0.81708162103 -0.15847726511 -0.55420673197 -0.82068499336 -0.16706914096 -0.54631266905 
-0.82446600665 -0.17867358636 -0.53675098306 -0.82806764608 -0.1908243544 -0.52703040974 -0.83108683025 -0.20474911829 -0.51679390418 
-0.83386916398 -0.21887287073 -0.5065847045 -0.83581269321 -0.23370134005 -0.49647220848 -0.83755048757 -0.24867997245 -0.48635284602 
-0.83849032196 -0.26424102499 -0.47620685156 -0.83924185421 -0.28006487649 -0.4659364599 -0.83919041607 -0.29700937264 -0.45513560544 
-0.83892470942 -0.31437636933 -0.44407560488 -0.83764794712 -0.33373699333 -0.43179278751 -0.83608063944 -0.35368946596 -0.41910279104 
-0.8329859981 -0.37675315762 -0.40427234286 -0.82947969324 -0.40050848082 -0.38890040208 -0.82354239831 -0.42834808473 -0.37033079376 
-0.81700118747 -0.45700393436 -0.35099533836 -0.80640630692 -0.49113867662 -0.32651928149 -0.79507195501 -0.52584845325 -0.30120884459 
-0.778026146 -0.56499962448 -0.26945390418 -0.76008243435 -0.60452743029 -0.23665220865 -0.73392435953 -0.647500836 -0.19427438947 
-0.70662059609 -0.69058436051 -0.15041577177 -0.66678099359 -0.7348727775 -0.090354626006 -0.6272194357 -0.7778039563 -0.030802890798 
-0.5912714301 -0.80309605459 0.022128389864 -0.55469408578 -0.82821768286 0.076034291654 -0.49355743364 -0.84668689057 0.16797379833 
-0.43655090043 -0.86273724184 0.25391376855 -0.40991622028 -0.86099993289 0.29573466061 -0.38328154013 -0.85926262393 0.33755555266 
-0.37909933321 -0.85898982976 0.34412231536 -0.37909933321 -0.85898982976 0.34412231536 
FrenetTangent 3 128 double
-0.8518285515 -0.022438561549 0.52333987982 -0.8518285515 -0.022438561549 0.52333987982 -0.85987553732 -0.038906256673 0.50901902078 
-0.87169030791 -0.0649580426 0.48573290994 -0.88567046993 -0.099668884166 0.45349082926 -0.89985245725 -0.14171137514 0.41253295789 
-0.91215152615 -0.18935684923 0.36348806995 -0.9206484895 -0.24055052676 0.30747650782 -0.92387220889 -0.29307148809 0.24610819675 
-0.92100796757 -0.34475152748 0.18135795539 -0.91197278314 -0.39370154223 0.11534616798 -0.89734323882 -0.43848221214 0.05008454228 
-0.87817108799 -0.47817691412 -0.012742802565 -0.85574932485 -0.51236843617 -0.071914384045 -0.83139220816 -0.54104599081 -0.12671318814 
-0.80627246819 -0.56447574221 -0.17689500697 -0.78132475293 -0.58307473828 -0.2226106018 -0.75720722343 -0.59730721515 -0.26431290455 
-0.73430559922 -0.60760908687 -0.30266563151 -0.7127635933 -0.61434016027 -0.33845860536 -0.69252335599 -0.61776194421 -0.37253400073 
-0.67337349298 -0.61803139302 -0.40571583182 -0.65499385845 -0.61521365647 -0.43874275184 -0.63699576856 -0.60931043038 -0.47220460635 
-0.618966247 -0.600299405 -0.50647942646 -0.60051430785 -0.58818407012 -0.54168447063 -0.58131410246 -0.57305828355 -0.57764878423 
-0.56114444265 -0.5551754712 -0.61391946594 -0.53992775262 -0.53499731127 -0.64981220279 -0.51774534898 -0.51322346013 -0.68450086456 
-0.49482090971 -0.49078241874 -0.71713658725 -0.47147838386 -0.46877060875 -0.74696870746 -0.44807668775 -0.44835557686 -0.77343684849 
-0.42492510969 -0.43066701512 -0.79621892294 -0.40220553099 -0.41669359158 -0.81522828801 -0.3799212515 -0.40720385456 -0.83056899984 
-0.35788224941 -0.40270153409 -0.84246766704 -0.33570105536 -0.40341463285 -0.85121174536 -0.3128200326 -0.40930970941 -0.85709345406 
-0.28857011103 -0.42011542226 -0.86036638881 -0.26221581609 -0.43535921302 -0.8612230962 -0.23301146098 -0.45440598831 -0.85977953967 
-0.20026162891 -0.47649158265 -0.85606720043 -0.16337916653 -0.50075772461 -0.85002879315 -0.12193246371 -0.52628380754 -0.8415211395 
-0.075692009548 -0.55211527246 -0.83032490364 -0.024676974674 -0.57729551379 -0.8161623225 0.030811872973 -0.60090850547 -0.79872372979 
0.090179855023 -0.6221235642 -0.77770808445 0.15254888662 -0.64024525463 -0.75287107204 0.21679329552 -0.65476931739 -0.724070306 
0.28161410368 -0.6654322522 -0.69129835407 0.34564076565 -0.67224274812 -0.65469240771 0.40753760984 -0.67548238614 -0.61452147447 
0.46611645419 -0.67566804457 -0.57114634261 0.52041062895 -0.67349103095 -0.5249596256 0.5697125689 -0.66973795132 -0.47631781974 
0.61356768694 -0.66520670469 -0.42548176645 0.65173459822 -0.6606273097 -0.3725769332 0.68412962193 -0.65659576295 -0.31756678744 
0.71074700113 -0.65353654465 -0.26024735387 0.7315880418 -0.6516666256 -0.20027367819 0.74659408269 -0.65097995604 -0.13719465194 
0.75558595751 -0.65124447821 -0.070501705017 0.75821765853 -0.65200145246 0.00029713653918 0.75395199147 -0.6525670371 0.075582118611 
0.74205801066 -0.65205066636 0.15549867302 0.72165285812 -0.64938703543 0.2398199962 0.69179430103 -0.64340746249 0.32779182766 
0.65164877115 -0.63295319863 0.41800015239 0.6007342016 -0.61703590759 0.50831595271 0.53917891133 -0.59505189132 0.59598603022 
0.46793819097 -0.56700007134 0.67789731415 0.38887269485 -0.53360947137 0.75102527205 0.30460507341 -0.4963181596 0.81294774353 
0.21816310278 -0.45711058977 0.86223823234 0.13254663321 -0.41821485011 0.89862546657 0.050344879708 -0.38178025971 0.92288093836 
-0.026486976513 -0.349656998 0.93650329622 -0.096674287857 -0.32327218645 0.94135496787 -0.15953013398 -0.30359528114 0.93935086183 
-0.21480210535 -0.29119831561 0.93223580521 -0.26251933954 -0.28632109825 0.92146829846 -0.30285731545 -0.28893948148 0.90818028085 
-0.33604191739 -0.29881674685 0.89318776389 -0.36229630711 -0.31552191334 0.87703324228 -0.38181714427 -0.33845944949 0.86003538845 
-0.39477772737 -0.3668799655 0.84234769358 -0.40135371188 -0.39987629814 0.82402314539 -0.40175620871 -0.43641380532 0.80506828238 
-0.39626843802 -0.47535963179 0.78549636886 -0.38527496612 -0.51553439807 0.76536754889 -0.36928410879 -0.55577118997 0.74481382331 
-0.34892047957 -0.59498736689 0.7240473273 -0.32489599255 -0.63225431573 0.70334705109 -0.29797941859 -0.6668251783 0.68304644622 
-0.26894326736 -0.69817056626 0.66349632957 -0.23850410201 -0.72597893235 0.64503517974 -0.20728750939 -0.75013369705 0.62795805991 
-0.17580481597 -0.77067288584 0.61249977119 -0.14442073862 -0.78774107464 0.59883774896 -0.11335909947 -0.80155066822 0.58708282281 
-0.082719644101 -0.81233649821 0.57729271098 -0.052488969321 -0.82031708444 0.56949520548 -0.022563152662 -0.82567129601 0.56370011095 
0.0072267476646 -0.82851573007 0.55991915412 0.037084968056 -0.82889027138 0.55818063667 0.067225974551 -0.82674656645 0.55854344792 
0.097857367816 -0.82194317984 0.56110012002 0.1291525977 -0.8142425748 0.56597582623 0.16122670353 -0.80331106087 0.57332127952 
0.19412804914 -0.78872529801 0.58328955487 0.22781511788 -0.76998572919 0.59600524236 0.26213800068 -0.74653581732 0.61152918332 
0.29682012072 -0.71780123837 0.6298088584 0.33144407566 -0.68325507431 0.65062072526 0.3654426522 -0.64251093707 0.67352161338 
0.39809431879 -0.59547028422 0.69780803518 0.42856631376 -0.54248273083 0.7225257099 0.45599032029 -0.48453588547 0.74652381308 
0.47958371448 -0.42338093403 0.76860135669 0.49881098193 -0.36152172592 0.78771165155 0.51351518762 -0.30204854156 0.80316177114 
0.52396957512 -0.24828645914 0.81474518627 0.53080757234 -0.20338058855 0.82272696404 0.5348449282 -0.16994545421 0.82768317935 
0.53685674989 -0.14984617826 0.83025956963 0.53685674989 -0.14984617826 0.83025956963 
FrenetNormal 3 128 double
-0.35576916311 -0.70851414506 -0.60945550193 -0.35576916311 -0.70851414506 -0.60945550193 -0.33604572545 -0.70746110792 -0.62174918671 
-0.30441317584 -0.70498004766 -0.6405745474 -0.26142369558 -0.70012888899 -0.66443749909 -0.20804354497 -0.69181750353 -0.69145240271 
-0.14576282922 -0.67901248796 -0.71951041606 -0.076605955492 -0.66097953543 -0.74648347693 -0.0030658835968 -0.6373934695 -0.77053239088 
0.072117874417 -0.6084207114 -0.79033110159 0.14625201498 -0.57468553289 -0.80519990462 0.21693343457 -0.53706009065 -0.8151725854 
0.28222298967 -0.49642553654 -0.8209213548 0.34072205852 -0.45347459044 -0.82357105016 0.39149897946 -0.40848449263 -0.82454167169 
0.43390168842 -0.36109219025 -0.82543428262 0.4674626796 -0.31038630986 -0.8277312256 0.49168646139 -0.25486212789 -0.83264021009 
0.50612861699 -0.19294059244 -0.84059963767 0.51053225575 -0.12351539168 -0.85094110481 0.50550628198 -0.047144716534 -0.86153396601 
0.49287830339 0.033745627683 -0.86944362133 0.47621759677 0.11472635079 -0.87181114065 0.45973663124 0.19142245601 -0.86717914714 
0.44729846122 0.26064160146 -0.85556416602 0.44108335023 0.32137635435 -0.8379515004 0.44217058059 0.37347017534 -0.81547851339 
0.45045991663 0.41741388256 -0.78920942351 0.46543059232 0.45348377256 -0.76008343736 0.4867942488 0.48122059543 -0.72901172684 
0.51489391198 0.49920083461 -0.69690945332 0.55081837779 0.50494247574 -0.66455414443 0.59687132708 0.49405170508 -0.63218472903 
0.65651282728 0.45896512246 -0.59861667533 0.73265416884 0.38748926812 -0.55952652839 0.82183319956 0.263519681 -0.50512134168 
0.90345341086 0.078688589004 -0.42140246838 0.94196314349 -0.14069956638 -0.30480988882 0.92555496239 -0.33399980611 -0.17830350845 
0.88367338057 -0.4627777607 -0.070413781831 0.8471880353 -0.53118782416 0.010579617608 0.82747430102 -0.55710064022 0.070179468596 
0.82372378872 -0.55495716574 0.11619666127 0.83128759123 -0.53387205897 0.15473062176 0.84535131365 -0.49935419701 0.18980659219 
0.86175823262 -0.45514598019 0.22408678058 0.87723701873 -0.40402993094 0.25925861197 0.88925511181 -0.34838172841 0.29640431411 
0.89607871988 -0.29010834509 0.33597630258 0.89646158509 -0.23104138978 0.37812233822 0.88961538092 -0.1729051598 0.42271536493 
0.87507690979 -0.11743458953 0.46952052045 0.85264054279 -0.066344084882 0.5182688175 0.82223755909 -0.021337165575 0.56874433781 
0.78391699551 0.016149121448 0.62065558084 0.73750902573 0.044629735982 0.67386098242 0.68277436752 0.063121025963 0.72789758836 
0.61918837766 0.070914581519 0.78203380687 0.54651423058 0.068437002345 0.83464877193 0.4648678426 0.057031241697 0.88354135522 
0.37533533398 0.039426025635 0.92605020143 0.28027004742 0.019696792712 0.95971909269 0.18261780636 0.0022337676259 0.98318144159 
0.085220359316 -0.0089844387921 0.99632161987 -0.0099583911205 -0.011125012919 0.99988852605 -0.10203862832 -0.0026738795299 0.99477684367 
-0.19118168887 0.016472721453 0.98141643113 -0.2777865277 0.045666846306 0.95955676444 -0.36239286492 0.083285903777 0.92829675734 
-0.44481056808 0.12749500019 0.88650357216 -0.52430903863 0.17590364545 0.83316141265 -0.59956306991 0.22576364342 0.76782478634 
-0.66904104545 0.27389751023 0.6909155038 -0.73107124597 0.31733869749 0.60401240417 -0.78463587417 0.35310381176 0.50957260826 
-0.82962681923 0.37840626888 0.41052166385 -0.8666597667 0.39104049492 0.30981959285 -0.89710192479 0.38883747194 0.20979408228 
-0.92263738177 0.36913095626 0.11172555163 -0.94436436962 0.32851973698 0.015834134056 -0.96179859503 0.26223511043 -0.078588863487 
-0.97134673811 0.16310402324 -0.17286582068 -0.96338942133 0.023888609186 -0.26703961732 -0.92034492542 -0.15877600983 -0.3574288698 
-0.82122975012 -0.37136402695 -0.43320948397 -0.66009834687 -0.57745853173 -0.4804287841 -0.46102286989 -0.73675714867 -0.49461784978 
-0.26172259587 -0.8339247084 -0.48587124172 -0.085761123388 -0.87930475371 -0.46847431073 0.061759740537 -0.89004968912 -0.45166058644 
0.18456993566 -0.87931375863 -0.4390230663 0.28820917747 -0.85512979253 -0.43091589428 0.37738650468 -0.82208839794 -0.42632158292 
0.4556634217 -0.78283915979 -0.42371416784 0.52556301168 -0.73898841242 -0.42152063657 0.58886797334 -0.69158384321 -0.41826582191 
0.64684501281 -0.64133262622 -0.41265480967 0.70074337046 -0.58850883594 -0.40325683971 0.75097157809 -0.5333918737 -0.3892747076 
0.79818136012 -0.47576720671 -0.36952954059 0.84272850016 -0.41509204948 -0.34279332765 0.88402118953 -0.35107445616 -0.30863127302 
0.92140087786 -0.28305387809 -0.26627227491 0.95349053579 -0.21067165014 -0.21557656176 0.97842048231 -0.1340732669 -0.1572186977 
0.99426308642 -0.053803026412 -0.092445385667 0.99930578437 0.028771976919 -0.023666910795 0.99256795846 0.1123305511 0.046804862195 
0.97396644326 0.19494144941 0.11570306264 0.94415961767 0.27544282608 0.18081445162 0.90454586847 0.35261896438 0.23970114264 
0.85681835658 0.42586442143 0.29069193038 0.8029217345 0.49482462703 0.33236316997 0.74449230322 0.55963833742 0.36405513557 
0.68318450533 0.62042776156 0.38513416411 0.62029130125 0.67741799786 0.39540303206 0.55679570115 0.73073265663 0.39497890033 
0.49346228152 0.78025655815 0.38431065582 0.43092496464 0.82559832067 0.36426787913 0.37005260714 0.86608160958 0.33610074902 
0.31159513812 0.90098692664 0.30187916112 0.25694783655 0.92967690852 0.26396714768 0.20747826011 0.95193152875 0.22534226448 
0.16485238804 0.96804360585 0.18898483363 0.13040788241 0.97881739214 0.15782996243 0.10547817013 0.98533077279 0.13415522287 
0.090779462532 0.98864711139 0.11973294584 0.090779462532 0.98864711139 0.11973294584 
FrenetBinormal 3 128 double
0.38446901232 -0.70533978848 0.59554962964 0.38446901232 -0.70533978848 0.59554962964 0.38430109384 -0.70568058211 0.59525421906 
0.38404247874 -0.70624612219 0.59475019077 0.38372577459 -0.70702592055 0.59402767409 0.38338419188 -0.70802996262 0.59305154367 
0.38305716409 -0.70928557355 0.59176108709 0.38280267289 -0.71080341714 0.59010220794 0.38268883182 -0.71262800107 0.58797158953 
0.38280979072 -0.71482209133 0.58522307019 0.38329621826 -0.71745078851 0.58167720871 0.38433708734 -0.72062459621 0.57704869347 
0.38621978757 -0.72450571114 0.57089907183 0.3893604652 -0.72927318711 0.5626358029 0.39435459336 -0.73512560499 0.55142977757 
0.40206222382 -0.74227997858 0.5360656691 0.41353388451 -0.75078904376 0.51507818642 0.42997865583 -0.76044025834 0.4866713152 
0.45235949202 -0.77044475813 0.44920570416 0.48096244751 -0.77931387482 0.40167774222 0.51465988798 -0.78495067106 0.34493136088 