# vtk DataFile Version 4.2
vtk output
ASCII
DATASET POLYDATA
POINTS 128 float
0 0 0 -0.289273 0.0163043 0.170386 -0.872479 0.0418611 0.476632 
-1.39327 0.0464275 0.663963 -1.85279 0.0240326 0.744029 -2.34086 -0.0258718 0.794887 
-2.84529 -0.113272 0.819953 -3.33288 -0.248947 0.809404 -3.79771 -0.435748 0.783447 
-4.24101 -0.672986 0.768415 -4.65939 -0.954063 0.777473 -5.0491 -1.27027 0.818606 
-5.41168 -1.61133 0.893814 -5.75037 -1.96721 1.00243 -6.06879 -2.33185 1.13969 
-6.37043 -2.70124 1.29934 -6.65777 -3.07505 1.4745 -6.93261 -3.45446 1.65797 
-7.19518 -3.84167 1.84208 -7.44407 -4.24088 2.01723 -7.67124 -4.6664 2.16294 
-7.8632 -5.13197 2.25274 -7.98719 -5.6206 2.24869 -8.00909 -6.10303 2.11694 
-7.93964 -6.55283 1.88391 -7.80765 -6.94955 1.59842 -7.63702 -7.30691 1.28938 
-7.44809 -7.65157 0.975943 -7.25043 -7.99714 0.668607 -7.04887 -8.35145 0.37409 
-6.84933 -8.72341 0.100453 -6.65958 -9.12299 -0.141593 -6.49847 -9.56442 -0.32452 
-6.39116 -10.0584 -0.412657 -6.3701 -10.5648 -0.372728 -6.46632 -11.0188 -0.179327 
-6.66418 -11.3752 0.134261 -6.92469 -11.6036 0.506984 -7.21876 -11.7102 0.904568 
-7.52327 -11.7193 1.30786 -7.82171 -11.6459 1.70759 -8.10153 -11.5004 2.10016 
-8.35429 -11.297 2.48576 -8.5741 -11.0521 2.86691 -8.75803 -10.7804 3.24847 
-8.90486 -10.4959 3.63675 -9.0137 -10.2131 4.03851 -9.08359 -9.94723 4.46068 
-9.11154 -9.71903 4.90896 -9.09337 -9.55274 5.38697 -9.02678 -9.47498 5.88238 
-8.91144 -9.51184 6.37197 -8.75583 -9.66218 6.83085 -8.57426 -9.90569 7.23456 
-8.37789 -10.2186 7.57825 -8.17535 -10.5756 7.87118 -7.97215 -10.9608 8.12305 
-7.77155 -11.3661 8.34352 -7.57628 -11.7858 8.5403 -7.38865 -12.2167 8.71946 
-7.21061 -12.6566 8.88589 -7.04378 -13.1041 9.04348 -6.88934 -13.5579 9.19543 
-6.74811 -14.017 9.34427 -6.62002 -14.4803 9.49211 -6.50416 -14.9465 9.64068 
-6.39824 -15.4144 9.79138 -6.2987 -15.8827 9.94536 -6.2004 -16.3497 10.1038 
-6.09667 -16.8135 10.2682 -5.97911 -17.2712 10.44 -5.83745 -17.7191 10.6212 
-5.65833 -18.1485 10.8136 -5.42541 -18.5459 11.0188 -5.13073 -18.8948 11.2347 
-4.77627 -19.1758 11.4554 -4.37288 -19.3835 11.676 -3.94102 -19.5278 11.8934 
-3.49569 -19.6227 12.1074 -3.04446 -19.6846 12.321 -2.59222 -19.7259 12.5371 
-2.14095 -19.7535 12.7573 -1.69195 -19.7719 12.9829 -1.24583 -19.783 13.2147 
-0.802952 -19.7877 13.4529 -0.363358 -19.7849 13.697 0.0729123 -19.7729 13.9469 
0.505815 -19.7485 14.2016 0.935109 -19.7084 14.4605 1.36024 -19.6483 14.7225 
1.78024 -19.5644 14.9864 2.19345 -19.4537 15.251 2.5983 -19.3146 15.5152 
2.99341 -19.1479 15.7781 3.37831 -18.9563 16.0391 3.75417 -18.7452 16.2982 
4.12315 -18.5205 16.5556 4.48897 -18.2894 16.8117 4.85559 -18.0586 17.0671 
5.22708 -17.8352 17.322 5.60695 -17.6258 17.5765 5.99759 -17.4364 17.8306 
6.40044 -17.2731 18.0839 6.81519 -17.1413 18.3364 7.24048 -17.0463 18.5881 
7.67307 -16.9929 18.8398 8.1084 -16.9853 19.0925 8.53946 -17.0272 19.3493 
8.95737 -17.1223 19.6139 9.34953 -17.2752 19.8915 9.69935 -17.489 20.187 
9.98142 -17.7632 20.5027 10.1729 -18.0911 20.8372 10.2618 -18.4514 21.1803 
10.2454 -18.8222 21.522 10.1416 -19.1865 21.8564 9.97128 -19.5321 22.1804 
9.75358 -19.8584 22.4964 9.50469 -20.1668 22.8071 9.23342 -20.4578 23.1138 
8.94907 -20.7358 23.4189 8.66719 -21.0176 23.7288 8.39847 -21.312 24.0458 
8.13309 -21.5928 24.3562 7.8767 -21.8609 24.6579 7.70858 -22.2446 25.0053 
7.68036 -22.7729 25.3942 7.69832 -23.0547 25.5871 
LINES 1 129
128 0 1 2 3 4 5 6 7 8 9 10 11 12 13 14 15 16 17 18 19 20 21 22 23 24 25 26 27 28 29 30 31 32 33 34 35 36 37 38 39 40 41 42 43 44 45 46 47 48 49 50 51 52 53 54 55 56 57 58 59 60 61 62 63 64 65 66 67 68 69 70 71 72 73 74 75 76 77 78 79 80 81 82 83 84 85 86 87 88 89 90 91 92 93 94 95 96 97 98 99 100 101 102 103 104 105 106 107 108 109 110 111 112 113 114 115 116 117 118 119 120 121 122 123 124 125 126 127 

CELL_DATA 1
FIELD FieldData 2
Length 1 1 double
57.022698061 
Tortuosity 1 1 double
0.61576747007 
POINT_DATA 128
SCALARS MaximumInscribedSphereRadius float
LOOKUP_TABLE default
0.93 0.93 0.93 0.914426 0.897526 0.829459 0.760525 0.757442 0.758106 
0.906152 1.06477 1.15163 1.23194 1.24293 1.24618 1.28613 1.33097 1.40485 
1.48326 1.49153 1.48712 1.44091 1.38612 1.34151 1.29905 1.36233 1.44968 
1.59837 1.7629 1.82867 1.86618 1.87063 1.86466 1.86606 1.87004 1.96049 
2.08093 2.16296 2.23193 2.14708 2.00552 1.90015 1.80916 1.76172 1.73299 
1.76195 1.81775 1.93476 2.08254 2.28551 2.51824 2.54657 2.45893 2.35334 
2.23708 2.18527 2.17441 2.219 2.30142 2.41925 2.56305 2.6498 2.69157 
2.66949 2.59337 2.49506 2.37659 2.24164 2.09063 2.02538 2.05001 2.13298 
2.28156 2.36008 2.35415 2.3418 2.32128 2.33606 2.39852 2.42656 2.40466 
2.36229 2.28794 2.24836 2.26729 2.30762 2.38686 2.47661 2.58702 2.695 
2.79782 2.87405 2.8889 2.89383 2.87387 2.8554 2.84098 2.82417 2.80013 
2.7633 2.68409 2.59947 2.49502 2.38147 2.23085 2.0936 2.01734 1.96522 
2.03686 2.09652 2.08658 2.06921 2.00307 1.95133 2.00353 2.05942 2.14619 
2.23225 2.31111 2.38771 2.43522 2.48 2.48 2.48277 2.59659 2.71588 
2.90794 3.1 
TEXTURE_COORDINATES TCoords 2 float
0 0 0.00787402 0 0.015748 0 0.023622 0 0.0314961 
0 0.0393701 0 0.0472441 0 0.0551181 0 0.0629921 0 
0.0708661 0 0.0787402 0 0.0866142 0 0.0944882 0 0.102362 
0 0.110236 0 0.11811 0 0.125984 0 0.133858 0 
0.141732 0 0.149606 0 0.15748 0 0.165354 0 0.173228 
0 0.181102 0 0.188976 0 0.19685 0 0.204724 0 
0.212598 0 0.220472 0 0.228346 0 0.23622 0 0.244094 
0 0.251969 0 0.259843 0 0.267717 0 0.275591 0 
0.283465 0 0.291339 0 0.299213 0 0.307087 0 0.314961 
0 0.322835 0 0.330709 0 0.338583 0 0.346457 0 
0.354331 0 0.362205 0 0.370079 0 0.377953 0 0.385827 
0 0.393701 0 0.401575 0 0.409449 0 0.417323 0 
0.425197 0 0.433071 0 0.440945 0 0.448819 0 0.456693 
0 0.464567 0 0.472441 0 0.480315 0 0.488189 0 
0.496063 0 0.503937 0 0.511811 0 0.519685 0 0.527559 
0 0.535433 0 0.543307 0 0.551181 0 0.559055 0 
0.566929 0 0.574803 0 0.582677 0 0.590551 0 0.598425 
0 0.606299 0 0.614173 0 0.622047 0 0.629921 0 
0.637795 0 0.645669 0 0.653543 0 0.661417 0 0.669291 
0 0.677165 0 0.685039 0 0.692913 0 0.700787 0 
0.708661 0 0.716535 0 0.724409 0 0.732283 0 0.740157 
0 0.748031 0 0.755906 0 0.76378 0 0.771654 0 
0.779528 0 0.787402 0 0.795276 0 0.80315 0 0.811024 
0 0.818898 0 0.826772 0 0.834646 0 0.84252 0 
0.850394 0 0.858268 0 0.866142 0 0.874016 0 0.88189 
0 0.889764 0 0.897638 0 0.905512 0 0.913386 0 
0.92126 0 0.929134 0 0.937008 0 0.944882 0 0.952756 
0 0.96063 0 0.968504 0 0.976378 0 0.984252 0 
0.992126 0 1 0 
FIELD FieldData 7
Curvature 1 128 double
0 0.03255516389 0.059822132862 0.083718209483 0.10331360339 0.11826699428 0.12885362799 0.13577860324 0.13984031843 
0.14159864932 0.14133512033 0.13923385108 0.13580751636 0.13229764227 0.1309181886 0.13469937793 0.14660000943 0.16800446288 
0.19775817648 0.23174276845 0.26285391234 0.28187037073 0.28071168006 0.25660213243 0.21357462109 0.159488377 0.10236052463 
0.054460795219 0.064015957643 0.12847904153 0.21659369487 0.33082498254 0.4768050419 0.64839948004 0.80933747877 0.89339031633 
0.85658803519 0.72750811119 0.57179708119 0.43334529016 0.32483847467 0.24433233031 0.18735376982 0.15262170465 0.14207210474 
0.1558080701 0.18824013919 0.232106369 0.28051712274 0.32557023814 0.35817802247 0.37050594062 0.35987882692 0.33014369323 
0.28923575387 0.24505760349 0.20298897622 0.16566039139 0.13374130047 0.10683406994 0.084066183126 0.064392638888 0.046637776705 
0.029767014974 0.013282231872 0.0095711270334 0.028307797055 0.050677629662 0.075470805549 0.1021252443 0.12959726648 0.15615197534 
0.17932691937 0.19626179104 0.20461614279 0.20337266568 0.19331484806 0.17681823088 0.15694447863 0.13651809212 0.11774114404 
0.10195460656 0.089773014973 0.081310556291 0.076147727227 0.073660893124 0.07307077709 0.073465955641 0.073985256467 0.073728236758 
0.071862461363 0.067713746234 0.060877404202 0.051199084233 0.038741276099 0.023833143225 0.0069061558184 0.011596871329 0.031250564348 
0.051693633383 0.072707288301 0.094191949121 0.11632088058 0.13936003704 0.16386562472 0.19042115799 0.21941661357 0.25061988897 
0.28263852819 0.31233927312 0.33490071462 0.34504399187 0.33885095716 0.31598605202 0.27981791494 0.23578649955 0.18918047897 
0.14388171425 0.10218327416 0.065495242018 0.035248509948 0.016125718331 0.018828730561 0.026348540854 0.027749649126 0.022329553026 
0.011700784472 0 
Torsion 1 128 double
0 0 0.099149106316 0.13625326054 0.17352088271 0.20736962913 0.23285346486 0.24407671508 0.23577478574 
0.20517294324 0.15207125485 0.077484853801 -0.017446380583 -0.12878215704 -0.24145190833 -0.32258763268 -0.33924865088 -0.29453465784 
-0.22261936973 -0.15232469679 -0.094117532648 -0.047078211392 -0.0055637588332 0.039325342655 0.10455976693 0.23760013293 0.64310725862 
2.4544652399 1.963317625 0.56646082253 0.2438048196 0.12969619752 0.071440239502 0.031544926674 -0.002017373295 -0.034814961929 
-0.07170357354 -0.11662600591 -0.17182577928 -0.24076375891 -0.33288873451 -0.46614421237 -0.65972968708 -0.87931066104 -0.95463742433 
-0.78795119335 -0.55661518031 -0.38399595261 -0.27320723038 -0.20323001313 -0.15862776377 -0.13026481024 -0.1127931461 -0.10348484973 
-0.10097160274 -0.10397307761 -0.11175415457 -0.12331424183 -0.13638627484 -0.14768080605 -0.15169421643 -0.13939328499 -0.092480618207 
0.067234302292 1.1609524828 2.6539684355 0.24041168689 0.031100239048 -0.010120215722 -0.01759652066 -0.014732078674 -0.0082304928908 
-0.00058587468243 0.007801315791 0.017090042022 0.027432555441 0.039376451955 0.0537054576 0.070463275864 0.089095237814 0.10782720567 
0.12250173374 0.12704682348 0.11632266606 0.090858142444 0.057308576414 0.025084587292 -8.5496276332e-05 -0.016188954949 -0.024568589643 
-0.028170617298 -0.029069250146 -0.029449886523 -0.029794890453 -0.030439040561 -0.030362207398 0.021661250187 -0.042269318257 -0.066553334061 
-0.080597227039 -0.096709923424 -0.1149908536 -0.13385515856 -0.15229660755 -0.1684019356 -0.18041747488 -0.18654558233 -0.18631853661 
-0.18052332738 -0.16996119736 -0.15619821493 -0.14064562734 -0.12435963492 -0.10713507621 -0.088532725238 -0.067388567328 -0.040484229778 
-0.0028342353033 0.061755536052 0.20690878469 0.68012059182 2.5628205994 1.2656621862 0.36375484357 0.14667759759 0.070554449064 
0 0 
Abscissas 1 128 double
0 0.50283782007 1.0056756401 1.5085146561 2.011353774 2.514187749 3.0170216369 3.5198602308 4.0226990924 
4.5255391603 5.0283793147 5.5312141166 6.0340484303 6.5368848934 7.0397215962 7.5425621701 8.0454032597 8.548240325 
9.051076762 9.5539140462 10.056751483 10.559589715 11.062428109 11.56526681 12.068105578 12.570943343 13.07378088 
13.57661856 14.079456278 14.582294895 15.08513377 15.587970827 16.090807312 16.593636828 17.096463914 17.599301302 
18.102142263 18.60498043 19.107817647 19.610655372 20.113493284 20.61633815 21.119185777 21.622028362 22.124868782 
22.627693061 23.130509834 23.63334795 24.136196794 24.639038312 25.14187588 25.644713818 26.147551965 26.650390467 
27.153229178 27.656073777 28.158922116 28.661764382 29.164602505 29.667427262 30.170242218 30.673075206 31.175922409 
31.678764824 32.181603187 32.684450398 33.187305649 33.690138391 34.192949177 34.695770959 35.198604262 35.701442684 
36.204286863 36.707137049 37.209994474 37.712839834 38.215669835 38.718501065 39.221333956 39.724168299 40.227004747 
40.729844892 41.232690811 41.735528797 42.238353431 42.74118426 43.244026348 43.746867769 44.249707881 44.752545792 
45.255379018 45.758217406 46.26106772 46.76391425 47.266751286 47.769587932 48.272423511 48.77525995 49.278098974 
49.780935546 50.283763997 50.786595454 51.289437939 51.792276808 52.295100928 52.797931439 53.300791091 53.803646616 
54.306480985 54.809313562 55.31213574 55.814962648 56.317820575 56.820676844 57.323521141 57.826365664 58.329212062 
58.832055745 59.33487207 59.837691147 60.340545477 60.843397747 61.346216251 61.849035371 62.35187914 62.854722323 
63.357557721 63.860393118 
ParallelTransportNormals 3 128 double
0.47632919715 0 0.87926702198 0.36938753147 0.0012202904677 0.92156723504 0.26244586579 0.0024405809354 0.9638674481 
0.16933524076 -0.004383174976 0.98138321321 0.077402267525 -0.011891845775 0.99678869245 0.02605362741 -0.024037210975 0.9979619135 
-0.02460789288 -0.036261078504 0.99889417292 -0.010084123826 -0.028773931737 0.99932969469 0.0081475589691 -0.020165569716 0.99973696069 
0.057113748565 0.01570247761 0.99618408155 0.10828479308 0.05352610053 0.99234710657 0.1555132155 0.099146384873 0.98053431907 
0.20238205605 0.14547775388 0.96799410766 0.23291664587 0.18072618906 0.95441454585 0.26163014018 0.21473899481 0.9407191075 
0.27360852655 0.23036856777 0.93368175446 0.28335734047 0.24354899313 0.92753143982 0.27397625614 0.22822672236 0.93393646675 
0.26160867232 0.20845470042 0.94230159407 0.22335083509 0.11952075145 0.96093024916 0.18041352915 0.018086304014 0.98141395974 
0.1550939818 -0.1590851723 0.9553682526 0.13339326262 -0.35181363858 0.91976503183 0.14821418682 -0.46360495516 0.86640897866 
0.17079437749 -0.55820063501 0.80928121797 0.17884572993 -0.58356618647 0.79201401983 0.18358914588 -0.59316937173 0.7838223037 
0.17304080169 -0.57433960332 0.79929261272 0.15854324801 -0.54816681556 0.82087381373 0.12761396767 -0.48208586101 0.86153577084 
0.09198352657 -0.40458707364 0.9076567831 0.049366748573 -0.23335289962 0.94924360375 0.0045465154191 -0.032555060957 0.98940036341 
0.023497619426 0.2247040027 0.93166209494 0.064699053598 0.50166283985 0.83976746728 0.15563892089 0.66367463884 0.69776895713 
0.26382613738 0.78582728702 0.53839637417 0.36090008774 0.82659453989 0.40369549545 0.45419586129 0.83969320203 0.27738225538 
0.53286629426 0.81966792853 0.16771068985 0.6061444776 0.7874301169 0.064174780645 0.65899965067 0.74568925502 -0.020124375651 
0.70374655778 0.70017552823 -0.096786229386 0.73051780225 0.66263419539 -0.15385056295 0.74957376299 0.62851467138 -0.20250349987 
0.75774208681 0.61039249179 -0.22990341494 0.76084826311 0.59970819039 -0.24742185321 0.76233474338 0.60179373198 -0.23679794784 
0.76300701145 0.61029860262 -0.21202704284 0.77201294553 0.61138186914 -0.16336335007 0.78551222158 0.60846355878 -0.10181715562 
0.80355056169 0.59068083506 -0.048390013536 0.82416416234 0.56446471257 0.00043074386454 0.84131560478 0.53836179655 0.033142944497 
0.85641195754 0.51232607833 0.056293326534 0.86909297023 0.48852584508 0.073093121316 0.88023935577 0.46614596498 0.085857963124 
0.89076204133 0.44331297947 0.096923986126 0.90085920614 0.42017086174 0.10683098605 0.91058007069 0.39579736946 0.11625329031 
0.92002495891 0.37052079453 0.1253201217 0.92860317199 0.34511231177 0.13399586554 0.93649814379 0.3195998398 0.14236329642 
0.94284563346 0.29710414984 0.1496672091 0.94788308026 0.27716235931 0.15607078543 0.95085727144 0.26505155434 0.15998601093 
0.95195627246 0.26005794167 0.16163969844 0.94991589041 0.26851770134 0.15854319994 0.94481322721 0.29010042423 0.15081317801 
0.93168514342 0.33189433057 0.13414658524 0.9101488161 0.39486351995 0.10811713563 0.86685631652 0.47927863567 0.06722510201 
0.79910139738 0.58780733361 0.0096217295616 0.70728075198 0.6899322513 -0.05591704633 0.58644625138 0.78433671413 -0.13102281572 
0.47587384881 0.85227630172 -0.19504661176 0.37836392882 0.8865291159 -0.2449643173 0.30368369961 0.90899976175 -0.28260288299 
0.25983848783 0.91555677264 -0.30365657703 0.22771592646 0.91983656712 -0.31915381355 0.21260082536 0.92081252957 -0.32658962816 
0.20079185972 0.92146921107 -0.33247766331 0.19414605336 0.92162727463 -0.33594854647 0.18641619416 0.92168350998 -0.34011049088 
0.17686168406 0.92156835059 -0.34543561247 0.16377285019 0.92102995372 -0.35295660586 0.14426025021 0.91972230682 -0.36446867864 
0.12049017396 0.91715588034 -0.3787931203 0.088353304044 0.91211569986 -0.39864443011 0.053684558587 0.90504056901 -0.42037893436 
0.013626828461 0.89363413668 -0.44612173434 -0.025282669129 0.88092578213 -0.47139962703 -0.061540524492 0.86521086589 -0.49560389765 
-0.093531386479 0.8505702194 -0.51709003801 -0.11481144765 0.83862615299 -0.531753259 -0.13102743244 0.82948941746 -0.54293124908 
-0.13336679815 0.82804535055 -0.54455898399 -0.13106100947 0.82929990253 -0.54302422447 -0.11479050929 0.83866730309 -0.53198206898 
-0.094399128834 0.84943945085 -0.51842517585 -0.060355249532 0.86486553373 -0.49653694321 -0.022482362403 0.88013267889 -0.47260444399 
0.029434419536 0.89481687806 -0.44117405858 0.085000113517 0.90778921007 -0.40778471532 0.15544570809 0.91378071789 -0.36640693671 
0.22947964549 0.91630510708 -0.32237376611 0.31987483873 0.90302096912 -0.26623318272 0.41329153018 0.88341053485 -0.20540321793 
0.52219620627 0.8313719561 -0.120535818 0.62872500789 0.77058526955 -0.029890474432 0.7214627511 0.65901910497 0.094293660475 
0.80443163482 0.54504913264 0.21844922786 0.82333754496 0.41531528607 0.34241745293 0.83656358353 0.29138752595 0.46062528226 
0.80878694548 0.20937358064 0.53724913538 0.78132518291 0.13234359767 0.60941166048 0.75648878744 0.09686887024 0.64437654788 
0.73302360107 0.063662213314 0.67717627678 0.72337686356 0.053312184505 0.68815647996 0.71504035568 0.044342430107 0.69765144098 
0.72349040606 0.05305664226 0.68811759697 0.73255173272 0.062645665996 0.67769150439 0.75163598123 0.08657872414 0.65263546806 
0.7710378716 0.11245467145 0.62604938317 0.80315474839 0.21610314543 0.53821649971 0.83302062617 0.31248713306 0.45653962374 
0.83302062617 0.31248713306 0.45653962374 0.83302062617 0.31248713306 0.45653962374 
FrenetTangent 3 128 double
-0.96118578865 -0.11067050057 0.25273290249 -0.96118578865 -0.11067050057 0.25273290249 -0.96167528762 -0.12984745747 0.24149591914 
-0.96107962975 -0.16012050143 0.22513855799 -0.95783543762 -0.20030240397 0.20598597379 -0.95040160651 -0.2487128045 0.18675847295 
-0.93759713655 -0.30324661438 0.17015610601 -0.91880237636 -0.36153651113 0.1584094199 -0.89399571144 -0.42118146377 0.15289814418 
-0.86366316158 -0.47999378353 0.15392176945 -0.82863954979 -0.53623237205 0.16065907906 -0.78992526563 -0.58879001758 0.17130204294 
-0.74849530251 -0.63729898901 0.18331606786 -0.70509992101 -0.68212352298 0.19375655031 -0.66007530218 -0.72420585302 0.19956572325 
-0.61319141215 -0.76476980534 0.19779645321 -0.56356662907 -0.8049140257 0.18575808413 -0.50970218184 -0.84512414586 0.16114857713 
-0.44970257497 -0.88476573281 0.12229959976 -0.38179148893 -0.9216933112 0.068678228457 -0.3051873894 -0.95229085161 0.0016707185747 
-0.22115168125 -0.97237685656 -0.074667146051 -0.13357884648 -0.97905877789 -0.15362487169 -0.04837274728 -0.9726445828 -0.22720605818 
0.028327237058 -0.95710959115 -0.28833799292 0.091898366367 -0.93863429476 -0.33244601209 0.13982963547 -0.92339277575 -0.35748210409 
0.1711709236 -0.91599698803 -0.36283609637 0.18553574496 -0.91893600951 -0.34804180461 0.1822346831 -0.93250617784 -0.31180562624 
0.15973657084 -0.95459557491 -0.25145877654 0.11553081128 -0.97985391168 -0.16290777581 0.046754961607 -0.99803933048 -0.041610916553 
-0.047590357216 -0.9923186437 0.11418785954 -0.16216366399 -0.94099224528 0.29704636069 -0.28114319323 -0.82826683606 0.48469841466 
-0.38217788506 -0.66037403754 0.64641023717 -0.44939451197 -0.4662936898 0.7619808183 -0.48081244279 -0.27779297909 0.83165525047 
-0.48335521762 -0.11375574021 0.86800193846 -0.46538949171 0.019608895231 0.88488875698 -0.43337634521 0.12259840259 0.89283513321 
-0.39152344467 0.1974706227 0.8987295174 -0.34232979514 0.24637135978 0.90670362547 -0.28715300075 0.27065862456 0.91885094717 
-0.22663038783 0.27079320295 0.93557987823 -0.16105146051 0.24652557452 0.95566080184 -0.09078958213 0.19736761919 0.97611642475 
-0.016824912677 0.12343723265 0.99220974189 0.058718073047 0.026684976541 0.99791788236 0.13231831326 -0.087922321199 0.98730012125 
0.19949534545 -0.21218422293 0.95665012553 0.25602990524 -0.33615094936 0.90633946558 0.29932928372 -0.45083304411 0.84092303229 
0.32900202714 -0.55044930011 0.76730908645 0.34642902451 -0.63296088512 0.69234922466 0.35388749611 -0.69912445442 0.62127983818 
0.35379345319 -0.75113438932 0.55733950306 0.34831597531 -0.79156366525 0.50209854133 0.33930326498 -0.82276688217 0.45599117532 
0.32835121641 -0.84664692865 0.4187773357 0.31692437127 -0.8646215759 0.38985699093 0.30646148206 -0.87766817839 0.36848328138 
0.29843190949 -0.88639891388 0.3538860846 0.29435321291 -0.89112501993 0.34532938609 0.29575425295 -0.89188828288 0.34214720913 
0.30409794258 -0.888460728 0.34374696525 0.32067313226 -0.88032063604 0.34957734481 0.34644872175 -0.86662652535 0.35907067377 
0.38188307293 -0.84622232239 0.37158188828 0.4267060218 -0.81773689615 0.38630084083 0.4797007054 -0.77981725658 0.40220924849 
0.53856541941 -0.73152654854 0.4181102699 0.59999857433 -0.67285532796 0.43274405649 0.66013125786 -0.60512097484 0.44503407534 
0.71525792783 -0.53100279197 0.45435903379 0.76258742794 -0.45410973704 0.46070029463 0.80069875639 -0.37819050419 0.4646003057 
0.82952190478 -0.30634824518 0.46695199128 0.84995622437 -0.24059166968 0.46871106785 0.86338353623 -0.18175315721 0.47067468512 
0.87126474417 -0.1296714389 0.47337412635 0.8748980641 -0.083501938812 0.47705429842 0.8753227113 -0.042000752252 0.48171162317 
0.87330709618 -0.0037897285293 0.48715536917 0.86938217277 0.032429019454 0.49307504131 0.86389364665 0.067730743845 0.49909950272 
0.85706089991 0.10283418964 0.50484823788 0.84904742574 0.13803532905 0.50996540743 0.84002523265 0.17318771994 0.51416303074 
0.83024302293 0.20771292827 0.51725415639 0.82008125504 0.240675543 0.51917436198 0.81006796501 0.27090408218 0.52000083684 
0.80085934643 0.29712790159 0.519941648 0.79317622439 0.318084487 0.51932045617 0.78770808594 0.33261868885 0.51853715313 
0.78500108838 0.33974603376 0.51802116153 0.78534715533 0.33865452902 0.518211304 0.78869818834 0.32869175591 0.51953527051 
0.79460188967 0.30935622873 0.52240459482 0.80216740538 0.28028742436 0.52722520187 0.8100572276 0.24127448021 0.53440987379 
0.81649865548 0.19226587424 0.54439303743 0.8193195226 0.13340835161 0.55759997455 0.81598715861 0.065095798492 0.57439315282 
0.80365810816 -0.011972689736 0.59497083953 0.77925639054 -0.096655428573 0.61920691689 0.73965390514 -0.18716733401 0.64643676388 
0.68203841545 -0.28082210119 0.67524998877 0.60457547642 -0.37379458134 0.70339612188 0.50738496567 -0.46117375767 0.7279280609 
0.39344528197 -0.53760263718 0.74577759057 0.26884521881 -0.5984968876 0.75466795602 0.14183885039 -0.641424347 0.7539605743 
0.020921964829 -0.66687190769 0.74487860093 -0.087076551767 -0.67788513361 0.72999275323 -0.1779717795 -0.67892288905 0.71231296242 
-0.25012979329 -0.67462350626 0.69449133278 -0.30378992345 -0.66891163149 0.67843121366 -0.34033321808 -0.6646076676 0.66518414656 
-0.3617924273 -0.66332627317 0.6550606803 -0.37063399592 -0.66553556158 0.6478370608 -0.36970778572 -0.67076680158 0.64295260406 
-0.36223649787 -0.67787341165 0.63974397801 -0.35169224861 -0.68536602488 0.63764094458 -0.34146032181 -0.69177371531 0.63628136499 
-0.33437004714 -0.69593385594 0.63550982662 -0.33437004714 -0.69593385594 0.63550982662 
FrenetNormal 3 128 double
-0.038836923868 -0.85263191608 -0.52106670304 -0.038836923868 -0.85263191608 -0.52106670304 -0.0079640134762 -0.86715897135 -0.49796776292 
0.040132317997 -0.88718874222 -0.45965806066 0.1031026992 -0.90879874935 -0.40429527154 0.17754599332 -0.92684952404 -0.33079809559 
0.25893580325 -0.935495578 -0.24041687408 0.34193092388 -0.92951318987 -0.13816104066 0.42132945738 -0.90630546516 -0.033043791789 
0.49339769485 -0.86750187633 0.063239301647 0.55685799831 -0.81893044209 0.13878797042 0.61273731823 -0.76878685457 0.18308400007 
0.66299892088 -0.72487867978 0.18703831296 0.70814921385 -0.69155487348 0.14239574392 0.74439133571 -0.66627464245 0.044267822806 
0.7634356206 -0.63805393541 -0.10026579028 0.76026084287 -0.59333979607 -0.26448315108 0.74252362387 -0.52672408134 -0.4137878806 
0.72528251799 -0.4416433872 -0.5281253522 0.7182120678 -0.34263043097 -0.6056201891 0.72224967924 -0.23260719833 -0.65134421938 
0.73332055505 -0.11533170566 -0.67002952264 0.74702922939 0.0023905599276 -0.66478689492 0.76199229192 0.11113312113 -0.63797897805 
0.78221975298 0.20081843321 -0.58974928142 0.81938272372 0.2609920832 -0.51038719084 0.89806177008 0.27033000922 -0.34699674816 
0.97536300509 0.10552612525 0.19372982524 0.2083187463 -0.30935696431 0.92784781542 -0.23974762029 -0.34968545933 0.90567166131 
-0.39014486913 -0.29503968118 0.87220328343 -0.46498635599 -0.19827632533 0.86282917635 -0.50734439544 -0.059609782542 0.85967920659 
-0.52258937458 0.12215886368 0.84378762589 -0.50388575817 0.3377907748 0.79498209739 -0.44383866912 0.56002992567 0.69955251279 
-0.34491696405 0.75089717042 0.56319244256 -0.22056468419 0.88447211937 0.41116941782 -0.084463402879 0.95874940723 0.27141390479 
0.058436403004 0.98511727184 0.16164512834 0.2124738226 0.97299616549 0.090185013429 0.38803493319 0.91955131766 0.062082725526 
0.59404085297 0.80014366268 0.082979419574 0.81052432004 0.56554492544 0.15234586943 0.95033587399 0.20068954374 0.23787692959 
0.94299484336 -0.17936004736 0.28034032677 0.84938563126 -0.45848337976 0.26141354189 0.74544045577 -0.63647740654 0.19802787145 
0.65458458969 -0.74876613501 0.10425109108 0.57534449881 -0.81782337948 -0.011984475701 0.50097492938 -0.85354073341 -0.14315144617 
0.42638279542 -0.86020941442 -0.27970962642 0.3495409868 -0.84195577386 -0.41101286282 0.27108184584 -0.80483241602 -0.52797671822 
0.19224674014 -0.75648633636 -0.62511568034 0.11395383135 -0.70419135334 -0.70080600896 0.036183926377 -0.65353452923 -0.75603131058 
-0.042102709874 -0.60806430786 -0.79277055907 -0.12188305379 -0.56933961421 -0.8130171738 -0.20315216617 -0.53740067489 -0.81849234084 
-0.28411327443 -0.51135455626 -0.81104633967 -0.359396489 -0.48987021776 -0.79426779706 -0.41905413753 -0.4719755841 -0.77564984228 
-0.43742928093 -0.45657387694 -0.77472312414 -0.26081146628 -0.42252421996 -0.86801535851 0.95470951576 0.26377005539 -0.13767751595 
0.87182500711 0.40499521559 0.27549960496 0.84519072762 0.43254316263 0.31394115118 0.83432697741 0.45963917483 0.30435230201 
0.82215271924 0.49470181536 0.28166473001 0.80349077048 0.53883603104 0.25309743856 0.77551879525 0.59123778591 0.22137858688 
0.73687942604 0.64955935092 0.18730018982 0.68717493769 0.71044113875 0.15186834225 0.62721977185 0.77005237928 0.11668200787 
0.55902650991 0.82488358194 0.08400260398 0.48553136565 0.8724084659 0.056238435319 0.4096137041 0.91154548734 0.036075447599 
0.33348594962 0.9424007103 0.025846133931 0.25839172874 0.96565967956 0.027112687016 0.18465136029 0.98197022935 0.040476459983 
0.11233800431 0.9915514378 0.064853056788 0.042328971687 0.99443895055 0.096433561482 -0.023266491854 0.99140809791 0.12871928276 
-0.081687124598 0.9846730777 0.15409783815 -0.13116840529 0.97719195265 0.16700520093 -0.17177285534 0.97112946347 0.16553444156 
-0.20543323588 0.96682353135 0.1518204361 -0.2340461067 0.96365220842 0.12882872792 -0.25976655145 0.96038467972 0.10090889809 
-0.28324677472 0.95644793862 0.07055923274 -0.30473556232 0.95158716263 0.0402257254 -0.32347880581 0.94617151898 0.010996311174 
-0.33844726873 0.94084326843 -0.01635208041 -0.34860794756 0.93636770874 -0.041085434603 -0.35278482066 0.93358528915 -0.062939480383 
-0.35189209756 0.93274380953 -0.078491639424 0.32989940179 -0.9372816814 0.11255858215 0.30858268663 -0.94256321248 0.12787226439 
0.27399827017 -0.95056236538 0.14613739245 0.2268994489 -0.95983119322 0.16504763136 0.16635862936 -0.96853515443 0.18510662081 
0.092006904625 -0.97420245097 0.20606871192 0.0042037503584 -0.9739232566 0.22683875054 -0.096026849151 -0.96456994863 0.24573086588 
-0.20650811725 -0.94327909154 0.25995952181 -0.32423262169 -0.907706471 0.26634971284 -0.44512469264 -0.8564881931 0.2613273485 
-0.56472158184 -0.78890810953 0.24230874876 -0.67795037527 -0.70505910702 0.20802630671 -0.77916057207 -0.6063346486 0.15895627333 
-0.86297589026 -0.49565432185 0.097976558754 -0.92531071549 -0.37803460892 0.029831430827 -0.96480855841 -0.25994778799 -0.03964332409 
-0.9832263665 -0.14874454812 -0.10555080117 -0.98510602702 -0.050469461148 -0.1643744172 -0.97600536558 0.029499253567 -0.21573900991 
-0.96117050385 0.086663026623 -0.26199385935 -0.94392900389 0.11470202065 -0.3095827548 -0.92182447604 0.096258528256 -0.37546495325 
-0.86184356288 -0.029914386456 -0.50629122312 -0.41319370709 -0.50653474359 -0.75676516434 0.55410623485 -0.71463219351 -0.42692752137 
0.77410852819 -0.60109320573 -0.19860247885 0.83122517929 -0.54192539196 -0.12402246113 0.85478050211 -0.51006522083 -0.09583195562 
0.86486096629 -0.49450622832 -0.086481785007 0.86486096629 -0.49450622832 -0.086481785007 
FrenetBinormal 3 128 double
0.27315485177 -0.5106572784 0.81523957888 0.27315485177 -0.5106572784 0.81523957888 0.27407520074 -0.48080656838 0.83289124628 
0.27334107324 -0.43273266655 0.85908503478 0.26818111017 -0.36601062845 0.8911313663 0.25537072385 -0.28123282289 0.92503723856 
0.23208588784 -0.18135466473 0.95563938086 0.19719390581 -0.072777613178 0.97765944098 0.15248985628 0.034879483973 0.9876893567 
0.10317295214 0.13056210143 0.98605723952 0.057146008048 0.2044694945 0.97720343818 0.023896727151 0.24958583179 0.96805777669 
0.013682581502 0.26153565381 0.96509682869 0.036861800136 0.23761177657 0.97066052321 0.10090656453 0.17777509181 0.97888399822 
0.20288505429 0.089522736476 0.97510170464 0.32310386162 -0.0078292802906 0.94633112438 0.43458296541 -0.09125196009 0.89599705689 
0.52128002375 -0.14879756912 0.84031328697 0.58172732844 -0.18189510125 0.79278464131 0.62065776253 -0.19757536596 0.75878054573 
0.64290971172 -0.2029331084 0.73856973678 0.65123269436 -0.20356373609 0.73106619614 0.64577691533 -0.20399006089 0.73577186049 
0.6223582776 -0.2088377059 0.75435865933 0.56583269818 -0.22549676982 0.7930854711 0.41705243095 -0.27252058237 0.86706389731 