# vtk DataFile Version 4.2
vtk output
ASCII
DATASET POLYDATA
POINTS 128 float
0 0 0 -0.277908 0.147835 -0.113005 -0.841997 0.410835 -0.32551 
-1.35295 0.561838 -0.47819 -1.80962 0.600045 -0.569753 -2.29753 0.583805 -0.639866 
-2.80134 0.508956 -0.68307 -3.28379 0.359536 -0.684883 -3.73676 0.146041 -0.647542 
-4.16062 -0.114334 -0.577638 -4.55472 -0.410326 -0.478661 -4.9188 -0.732739 -0.353149 
-5.25613 -1.07344 -0.203787 -5.57114 -1.42501 -0.0331531 -5.86819 -1.78219 0.15706 
-6.15144 -2.1407 0.36526 -6.42434 -2.4977 0.588526 -6.69021 -2.85093 0.824064 
-6.95344 -3.19859 1.07315 -7.21799 -3.5394 1.33639 -7.4819 -3.87465 1.59824 
-7.74362 -4.20591 1.84373 -8.02392 -4.52857 2.11418 -8.34417 -4.83936 2.4487 
-8.65168 -5.16719 2.66952 -8.86022 -5.54508 2.5241 -8.90031 -5.87112 2.0942 
-8.74188 -6.00533 1.63708 -8.48023 -6.03873 1.19917 -8.223 -6.10029 0.769253 
-7.97261 -6.19363 0.346789 -7.70628 -6.29236 -0.0661062 -7.42784 -6.40236 -0.469572 
-7.14817 -6.53807 -0.864027 -6.87103 -6.70561 -1.24758 -6.59854 -6.90911 -1.61715 
-6.33724 -7.15739 -1.9673 -6.09693 -7.46137 -2.28975 -5.89793 -7.83432 -2.56407 
-5.76493 -8.28438 -2.76392 -5.72531 -8.78102 -2.85454 -5.80135 -9.27775 -2.80452 
-5.97531 -9.72395 -2.62621 -6.21389 -10.0736 -2.34954 -6.48743 -10.322 -2.0041 
-6.76942 -10.481 -1.6174 -7.04449 -10.5619 -1.20404 -7.30229 -10.5763 -0.772706 
-7.53477 -10.5349 -0.328799 -7.73501 -10.4486 0.124013 -7.89706 -10.3282 0.584084 
-8.01523 -10.185 1.05083 -8.08234 -10.0317 1.52465 -8.09008 -9.88301 2.00601 
-8.02639 -9.7672 2.49158 -7.87988 -9.71906 2.97414 -7.66375 -9.7689 3.42883 
-7.40515 -9.94065 3.82355 -7.13567 -10.2202 4.14957 -6.88738 -10.573 4.41201 
-6.67212 -10.975 4.62323 -6.48987 -11.4089 4.79913 -6.33925 -11.8637 4.94978 
-6.21801 -12.3328 5.08159 -6.12242 -12.8113 5.19948 -6.04772 -13.2957 5.30738 
-5.9884 -13.7837 5.40839 -5.93833 -14.2736 5.50503 -5.89005 -14.764 5.59949 
-5.83501 -15.2539 5.69367 -5.76308 -15.7412 5.78933 -5.66289 -16.2234 5.88807 
-5.52384 -16.695 5.99081 -5.33629 -17.1487 6.09791 -5.09636 -17.5764 6.20887 
-4.80528 -17.97 6.3225 -4.468 -18.3245 6.43764 -4.09258 -18.638 6.55322 
-3.68636 -18.9102 6.66864 -3.25577 -19.1419 6.78372 -2.80621 -19.3342 6.89848 
-2.34201 -19.4879 7.01305 -1.86703 -19.6036 7.12783 -1.3847 -19.682 7.24344 
-0.898213 -19.7238 7.36056 -0.410551 -19.73 7.47992 0.0755758 -19.7023 7.60235 
0.557763 -19.6428 7.72881 1.03418 -19.5548 7.86024 1.5037 -19.4424 7.99759 
1.96601 -19.3107 8.14179 2.42182 -19.1657 8.2937 2.87224 -19.0134 8.45415 
3.31889 -18.8601 8.62393 3.76326 -18.7116 8.80371 4.20658 -18.5732 8.99395 
4.6497 -18.4502 9.19499 5.09286 -18.3475 9.40711 5.53574 -18.2698 9.63039 
5.97722 -18.2218 9.86465 6.41547 -18.2083 10.1095 6.8476 -18.234 10.3642 
7.26981 -18.3036 10.6274 7.67685 -18.4218 10.8974 8.0624 -18.5924 11.1713 
8.41842 -18.8176 11.4456 8.737 -19.0976 11.7161 9.01099 -19.4275 11.9786 
9.23521 -19.8011 12.2296 9.40879 -20.2084 12.4679 9.53274 -20.6399 12.6934 
9.6112 -21.0872 12.9083 9.649 -21.5431 13.1154 9.65152 -22.0026 13.3177 
9.62401 -22.4619 13.5184 9.57124 -22.9183 13.7205 9.49805 -23.3698 13.9269 
9.40978 -23.8152 14.141 9.31166 -24.2533 14.3656 9.20846 -24.6831 14.6026 
9.10822 -25.1036 14.8558 9.02957 -25.5142 15.1365 8.98781 -25.9115 15.4505 
8.98002 -26.2816 15.7801 9.02364 -26.6117 16.1221 9.2235 -26.9004 16.544 
9.59432 -27.1305 17.0338 9.80622 -27.2265 17.2795 
LINES 1 129
128 0 1 2 3 4 5 6 7 8 9 10 11 12 13 14 15 16 17 18 19 20 21 22 23 24 25 26 27 28 29 30 31 32 33 34 35 36 37 38 39 40 41 42 43 44 45 46 47 48 49 50 51 52 53 54 55 56 57 58 59 60 61 62 63 64 65 66 67 68 69 70 71 72 73 74 75 76 77 78 79 80 81 82 83 84 85 86 87 88 89 90 91 92 93 94 95 96 97 98 99 100 101 102 103 104 105 106 107 108 109 110 111 112 113 114 115 116 117 118 119 120 121 122 123 124 125 126 127 

CELL_DATA 1
FIELD FieldData 2
Length 1 1 double
55.181279657 
Tortuosity 1 1 double
0.63718502086 
POINT_DATA 128
SCALARS MaximumInscribedSphereRadius float
LOOKUP_TABLE default
0.8742 0.889422 0.904643 0.879212 0.849927 0.774055 0.696504 0.848611 1.01491 
1.18024 1.34548 1.43308 1.51231 1.44764 1.36368 1.26586 1.16578 1.07956 
0.995998 0.960176 0.935104 0.935344 0.942055 0.976665 1.01906 1.06555 1.11422 
1.11979 1.12372 1.15605 1.18986 1.21861 1.24693 1.15889 1.05814 1.0393 
1.0316 1.10723 1.19641 1.22285 1.23761 1.24328 1.2472 1.32213 1.41093 
1.47908 1.54283 1.54975 1.54299 1.43822 1.30681 1.2379 1.1881 1.18538 
1.19871 1.15081 1.07994 1.19679 1.38724 1.48056 1.53347 1.49356 1.41147 
1.28736 1.14225 1.17779 1.31272 1.50853 1.74114 1.77474 1.67643 1.61069 
1.56858 1.52246 1.47318 1.34726 1.15593 1.07508 1.09632 1.13983 1.20567 
1.24485 1.25497 1.31161 1.42338 1.53572 1.64876 1.74141 1.80532 1.88194 
1.97813 2.04792 2.07311 2.05623 1.96123 1.83851 1.65905 1.50581 1.41191 
1.36917 1.45479 1.52606 1.55734 1.58959 1.62483 1.67348 1.76856 1.86597 
1.9724 2.0407 1.9419 1.82107 1.58916 1.3994 1.45925 1.51919 1.57968 
1.62906 1.5797 1.52664 1.43086 1.34178 1.36252 1.38527 1.46601 1.54055 
1.54528 1.55 
TEXTURE_COORDINATES TCoords 2 float
0 0 0.00787402 0 0.015748 0 0.023622 0 0.0314961 
0 0.0393701 0 0.0472441 0 0.0551181 0 0.0629921 0 
0.0708661 0 0.0787402 0 0.0866142 0 0.0944882 0 0.102362 
0 0.110236 0 0.11811 0 0.125984 0 0.133858 0 
0.141732 0 0.149606 0 0.15748 0 0.165354 0 0.173228 
0 0.181102 0 0.188976 0 0.19685 0 0.204724 0 
0.212598 0 0.220472 0 0.228346 0 0.23622 0 0.244094 
0 0.251969 0 0.259843 0 0.267717 0 0.275591 0 
0.283465 0 0.291339 0 0.299213 0 0.307087 0 0.314961 
0 0.322835 0 0.330709 0 0.338583 0 0.346457 0 
0.354331 0 0.362205 0 0.370079 0 0.377953 0 0.385827 
0 0.393701 0 0.401575 0 0.409449 0 0.417323 0 
0.425197 0 0.433071 0 0.440945 0 0.448819 0 0.456693 
0 0.464567 0 0.472441 0 0.480315 0 0.488189 0 
0.496063 0 0.503937 0 0.511811 0 0.519685 0 0.527559 
0 0.535433 0 0.543307 0 0.551181 0 0.559055 0 
0.566929 0 0.574803 0 0.582677 0 0.590551 0 0.598425 
0 0.606299 0 0.614173 0 0.622047 0 0.629921 0 
0.637795 0 0.645669 0 0.653543 0 0.661417 0 0.669291 
0 0.677165 0 0.685039 0 0.692913 0 0.700787 0 
0.708661 0 0.716535 0 0.724409 0 0.732283 0 0.740157 
0 0.748031 0 0.755906 0 0.76378 0 0.771654 0 
0.779528 0 0.787402 0 0.795276 0 0.80315 0 0.811024 
0 0.818898 0 0.826772 0 0.834646 0 0.84252 0 
0.850394 0 0.858268 0 0.866142 0 0.874016 0 0.88189 
0 0.889764 0 0.897638 0 0.905512 0 0.913386 0 
0.92126 0 0.929134 0 0.937008 0 0.944882 0 0.952756 
0 0.96063 0 0.968504 0 0.976378 0 0.984252 0 
0.992126 0 1 0 
FIELD FieldData 7
Curvature 1 128 double
0 0.053628023158 0.10032367696 0.14374816187 0.18138266567 0.2102019511 0.2276011648 0.23248841124 0.22583815347 
0.21028343802 0.18911080778 0.16528641005 0.14093848245 0.11732281378 0.095087175431 0.074805693229 0.058415120272 0.052651093627 
0.068294757667 0.10858125434 0.17680050536 0.28544978181 0.45371910918 0.68773732238 0.92353552249 1.0015233574 0.84640207988 
0.58990920551 0.36795754829 0.21374870915 0.11503696725 0.067664466619 0.084000029881 0.13146277603 0.19121475776 0.26497211136 
0.35887654074 0.47910369009 0.62561875237 0.78021768704 0.89693724975 0.9219609635 0.84350699874 0.7048437532 0.55889065971 
0.43440853847 0.33788272928 0.26656014635 0.21678592615 0.18696411413 0.17748818573 0.18789001356 0.21441047679 0.25083228606 
0.28958834585 0.32202788101 0.34004939988 0.33877505506 0.31885526038 0.28563231672 0.24587029449 0.20507740921 0.16634163312 
0.13088481941 0.098924698421 0.070739259938 0.048386306242 0.039259730441 0.049741147267 0.071090040469 0.095651981876 0.12037654345 
0.14355282663 0.16373784482 0.17977276972 0.19083233812 0.19665479504 0.19760196615 0.19445198294 0.18819029463 0.17974155206 
0.16985754678 0.15903480776 0.14748804938 0.13527832071 0.1223862636 0.10877783387 0.094574659185 0.079898793625 0.06522589954 
0.051442007024 0.040561364174 0.03629025054 0.041442882248 0.053773820707 0.069841087543 0.087801177043 0.10695421098 0.12673849085 
0.14691071003 0.16703307526 0.18646863701 0.2043325108 0.21949543376 0.23064153576 0.23652572491 0.23637957331 0.22989448517 
0.21756539258 0.20032244176 0.17947774048 0.15627116624 0.13179378694 0.10700915959 0.082993252049 0.061837197293 0.048692684359 
0.051074475327 0.067178294535 0.088378330437 0.10844028465 0.12289887331 0.12791941348 0.12106751593 0.10188255483 0.072251157737 
0.035499527755 0 
Torsion 1 128 double
0 0 0.011750750057 0.01677496159 0.022599244418 0.029287633825 0.036895724873 0.045325439981 0.054176914109 
0.062485304089 0.068322845209 0.068154122668 0.055493801346 0.017841011635 -0.071212787081 -0.27231736247 -0.69666685396 -1.1568722308 
-0.86068703469 -0.40017090257 -0.15701778915 -0.037532789523 0.025590582843 0.060333408366 0.081114920095 0.10167744838 0.13518415684 
0.19249144057 0.29557215057 0.52411143306 1.1841317562 2.5384498577 1.3869549592 0.53206559099 0.25593841811 0.14018219956 
0.076097206837 0.030889738818 -0.0070865531514 -0.042100878125 -0.076251311214 -0.11245331014 -0.1537944718 -0.20181702234 -0.25743883811 
-0.32367836801 -0.40804033033 -0.51993596518 -0.66082647092 -0.79788071219 -0.84865096595 -0.76875945016 -0.62523514038 -0.49380645009 
-0.39682115988 -0.3302590173 -0.28482588477 -0.25232028499 -0.22656520726 -0.20240829158 -0.17521270607 -0.14056511693 -0.092692076514 
-0.020076219562 0.10423092698 0.35567078404 0.90931628825 1.4327131023 0.8569271262 0.38334805359 0.18754888508 0.10359291763 
0.064274343932 0.045254214729 0.036525721077 0.033546375901 0.034199115663 0.037241889301 0.041944507304 0.04773417546 0.054364839714 
0.061680970762 0.069585001615 0.078658508476 0.08977079125 0.10473185451 0.12668315132 0.16115072327 0.21962990492 0.32479717519 
0.52157989688 0.84632780233 1.0734936668 0.83817955492 0.50626404926 0.302544166 0.19047260838 0.12465250522 0.08330435356 
0.055007650227 0.03393240586 0.017349436239 0.0035286294413 -0.0087327243794 -0.020363896929 -0.031670373669 -0.043232848242 -0.055857214487 
-0.070085979764 -0.087164827386 -0.10934995277 -0.14048400872 -0.1890625979 -0.27385249164 -0.43806677687 -0.77226440984 -1.2389885335 
-1.1284946754 -0.64749682523 -0.35956524401 -0.2164830078 -0.13955495113 -0.093854192883 -0.06418400743 -0.043164903572 -0.027478435115 
0 0 
Abscissas 1 128 double
0 0.50178951939 1.0035790388 1.5053667795 2.0071543516 2.5089469828 3.0107397964 3.5125287403 4.0143174451 
4.5161052914 5.0178930658 5.5196841363 6.0214755618 6.5232632018 7.0250503345 7.5268416232 8.0286335869 8.53042036 
9.0322061335 9.5339969072 10.035788807 10.537577081 11.039364428 11.541154754 12.042945909 12.544734622 13.046522043 
13.54831451 14.05010717 14.551895399 15.053683396 15.5554745 16.057265864 16.559054463 17.06084276 17.562630096 
18.064417301 18.56620865 19.068000673 19.569788048 20.071574559 20.573366746 21.07516003 21.576940963 22.078719486 
22.580507693 23.082297972 23.584088453 24.085878981 24.587671526 25.08946462 25.591249309 26.093031432 26.594820654 
27.096612297 27.59840178 28.100190453 28.601984169 29.103779862 29.60556784 30.107352609 30.609142752 31.110935338 
31.612704659 32.114462347 32.616245304 33.118042165 33.619850524 34.121665832 34.623452091 35.125219095 35.626994647 
36.128776402 36.630581122 37.132403967 37.634199968 38.135973058 38.637755322 39.139546063 39.641334715 40.143121274 
40.64491045 41.146702477 41.648492811 42.150281137 42.65207121 43.153863538 43.655653054 44.157438608 44.659224933 
45.161012446 45.662799985 46.164587568 46.666379922 47.16818114 47.669977506 48.171763933 48.673550925 49.175339195 
49.677126286 50.178910418 50.680696674 51.18248885 51.684283066 52.186083614 52.687881293 53.189669043 53.691453334 
54.19322423 54.695001561 55.196807083 55.698611292 56.200408877 56.702207814 57.204014756 57.705819002 58.207604009 
58.709389527 59.211179586 59.712969008 60.214751034 60.71653285 61.218311209 61.720090498 62.221896594 62.723702001 
63.225499637 63.727297273 
ParallelTransportNormals 3 128 double
-0.35867186089 0 0.9334637091 -0.30425261788 -0.017609435477 0.95039673989 -0.24983337486 -0.035218870955 0.96732977067 
-0.18016887892 -0.0393324983 0.98033369501 -0.10905964492 -0.042167176207 0.992965272 -0.03390545103 -0.02458322447 0.99604431629 
0.041394595889 -0.0062630184551 0.99877891568 0.10307267873 0.025478892415 0.99188650796 0.16390873382 0.058050452213 0.98439901666 
0.20924611351 0.093684803596 0.97159332913 0.25328611474 0.12957553817 0.95834246075 0.28635542485 0.16348161599 0.94278828942 
0.31824355159 0.19717401142 0.92698612796 0.34249139734 0.22630059282 0.91097192118 0.36571512458 0.2548151634 0.89492929144 
0.38292440757 0.27705568162 0.88074005088 0.3991568996 0.29827724658 0.86685181465 0.40986331467 0.312212113 0.85685624607 
0.41950551271 0.32474370023 0.84761033104 0.42200219393 0.32793557852 0.84520395788 0.42288962349 0.32902404813 0.84433792733 
0.40296958067 0.30667574941 0.86123323747 0.37773056974 0.2783363615 0.88266883979 0.16705644628 -0.074763925845 0.82466458452 
-0.095336952599 -0.51844251936 0.74450394356 -0.15188876249 -0.79374029106 0.48973624213 -0.099475968966 -0.97990374563 0.14253829282 
-0.096751960509 -0.98700126388 0.12831342867 -0.095918732925 -0.98728488143 0.12675901198 -0.10880328886 -0.98276754506 0.14711746729 
-0.12240791023 -0.97799819997 0.16862615955 -0.149173317 -0.9654782021 0.20736421365 -0.17704098359 -0.95230906112 0.24754528446 
-0.21997422181 -0.92239652887 0.30659868946 -0.26455197889 -0.89065633129 0.36771214967 -0.33026238251 -0.81358995458 0.45680223634 
-0.39884539822 -0.73036228 0.54969525396 -0.47127591207 -0.53543456276 0.65514548408 -0.54433209991 -0.32234236312 0.76263774803 
-0.53510799183 -0.0079824090728 0.77732589419 -0.51057250427 0.32522226349 0.77474430344 -0.40645155881 0.56467613412 0.66050972546 
-0.28695340223 0.78601581769 0.52470196564 -0.17939988741 0.88555231102 0.38367762124 -0.074177337124 0.96131924116 0.24163527446 
0.0010549862308 0.98357448965 0.12393477813 0.069869618269 0.9943786259 0.011443261471 0.11338043391 0.98657997727 -0.076084860578 
0.150795175 0.97429963458 -0.15759892086 0.16878262761 0.96134486366 -0.21184147474 0.18148804453 0.94820672417 -0.25866924862 
0.18430339043 0.94645426495 -0.26498757731 0.18409697713 0.94818052534 -0.25892886763 0.20477704118 0.95644084558 -0.17811442936 
0.23257634271 0.96692832568 -0.071819208636 0.31132932652 0.92631360212 0.079614133558 0.40918973526 0.86653575871 0.24797408888 
0.49764994006 0.76893315985 0.3657207371 0.58242412682 0.65649867737 0.46362084113 0.6364534908 0.55859855419 0.52146477351 
0.67769388892 0.46674430827 0.56264648554 0.70287037297 0.39355519537 0.58874225924 0.72074528351 0.32884999494 0.60798098133 
0.73117129044 0.28064248764 0.62053910619 0.73787273053 0.24068408172 0.62975682926 0.74127988189 0.21743835086 0.63485432721 
0.74287443544 0.20338834045 0.63768477707 0.74217108698 0.20867006264 0.63669034659 0.74007877964 0.22563678347 0.63338398046 
0.73222296141 0.26466142378 0.62539915012 0.72054691834 0.31830670307 0.61431329584 0.69593602082 0.38819328539 0.59844012638 
0.66194135229 0.46986234804 0.5790939322 0.61423273352 0.55068667839 0.55766178035 0.55570021689 0.63084429376 0.53458326169 
0.49196155249 0.69897407402 0.51250589102 0.42377997751 0.75683933661 0.49128289698 0.35571309234 0.80383875103 0.47157394684 
0.28775218151 0.84079802889 0.45326398619 0.22040493067 0.87035759664 0.4358153181 0.15367307131 0.89249657522 0.41923037279 
0.08716769841 0.90914397863 0.40292157209 0.020909192623 0.9198056408 0.38691376521 -0.044376047838 0.9258956621 0.3709798182 
-0.10850707872 0.92656410769 0.35513346272 -0.16959800444 0.92383063037 0.33958748263 -0.22676175842 0.91670258943 0.32442952391 
-0.27815351075 0.90826582987 0.31025201909 -0.32141219888 0.89798501462 0.29745602716 -0.35680064161 0.88889041097 0.2866132831 
-0.38006357496 0.88162337676 0.27877986395 -0.39563503941 0.8767384588 0.27349124023 -0.39821272961 0.87587782815 0.27250172994 
-0.39445222141 0.87694558877 0.2742143518 -0.37891663491 0.88159590655 0.28094698338 -0.35831028391 0.88690667945 0.29039107133 
-0.32732034659 0.89356989 0.30538750573 -0.29212523085 0.89937420538 0.32315168432 -0.24741164323 0.90323440125 0.34718068516 
-0.19909746428 0.90451731842 0.37414572333 -0.14175175895 0.89933553065 0.40847535691 -0.081864862714 0.88958940818 0.44571412102 
-0.014895611296 0.8671223841 0.49106069616 0.052111890651 0.83865425873 0.53833648696 0.11923812035 0.79155901255 0.59160046747 
0.18256985214 0.74019973742 0.64419240123 0.23276683087 0.67408041524 0.69445802771 0.27775866081 0.60839200938 0.74192610708 
0.30259034037 0.54437259282 0.77855895919 0.32406510037 0.48392638289 0.81236750847 0.33083155536 0.43913613729 0.83380140695 
0.33643328686 0.39802473369 0.85334736309 0.33616238547 0.37546235807 0.8633741566 0.3358665276 0.35565646797 0.87218010984 
0.33542285442 0.35217703343 0.87375511838 0.33537365656 0.35080244478 0.87430327924 0.33813799931 0.36444037758 0.86752759135 
0.34139603079 0.38014480384 0.85943332302 0.34903965542 0.41420654497 0.83962568753 0.35683901881 0.45077980285 0.8175740374 
0.36644195309 0.51643829566 0.769535026 0.37482286022 0.58376519815 0.7188043276 0.36318611824 0.67842180423 0.62398193625 
0.34943576272 0.77287499432 0.5276946516 0.27472406475 0.8614612127 0.38915656734 0.20609933015 0.94283007314 0.26190555416 
0.20609933015 0.94283007314 0.26190555416 0.20609933015 0.94283007314 0.26190555416 
FrenetTangent 3 128 double
-0.97974453767 0.077814922176 -0.18451416962 -0.97974453767 0.077814922176 -0.18451416962 -0.98459893429 0.046587809383 -0.16850671978 
-0.98976408836 -0.0024613290259 -0.14269194532 -0.99195345948 -0.066831548308 -0.1075261753 -0.98769207631 -0.14268260562 -0.064078361829 
-0.97426300482 -0.2249678158 -0.01418024326 -0.95053410997 -0.30807304924 0.039697633549 -0.91727788435 -0.38679072286 0.09483785954 
-0.87683614346 -0.45719978324 0.14875058228 -0.83235848209 -0.51708830705 0.1994969674 -0.78701644185 -0.56587137024 0.24575335726 
-0.7434737496 -0.60421064046 0.28666406404 -0.70365890896 -0.63358855056 0.32160486382 -0.66874276043 -0.65598232009 0.34995759188 
-0.63920986114 -0.67366065112 0.37093406496 -0.61493989324 -0.68907192078 0.383443367 -0.59525075411 -0.70477975714 0.38595599964 
-0.57886163781 -0.72340889781 0.37629612123 -0.56371258488 -0.74754985318 0.35127957335 -0.54651624234 -0.77949148004 0.30612583917 
-0.5218576884 -0.82039611512 0.233698026 -0.48074172112 -0.86801430626 0.12425200886 -0.40961741851 -0.91171092713 -0.031571439765 
-0.29484650946 -0.92724096668 -0.23084567479 -0.13928693713 -0.88673294479 -0.44079908548 0.025930529028 -0.79186734563 -0.61014237239 
0.16606719568 -0.67952141351 -0.71461341654 0.26943137299 -0.58371434379 -0.76595319707 0.34107244688 -0.51751110239 -0.78476228559 
0.38921015205 -0.4813380404 -0.78538471363 0.41993138953 -0.47195991587 -0.77518479468 0.43665624416 -0.48610330822 -0.75699068566 
0.44069250683 -0.52123394648 -0.73082507309 0.43172471938 -0.57533215179 -0.69469898647 0.40806450349 -0.64629499455 -0.6448148114 
0.36679183604 -0.7309370724 -0.57549521735 0.3040645631 -0.8233089851 -0.47927764034 0.21623879729 -0.91218402932 -0.3480820007 
0.10278048077 -0.9788181765 -0.17706255991 -0.029002906278 -0.99918131572 0.028205136857 -0.16148986303 -0.9555983231 0.24648097093 
-0.27306501097 -0.85131477285 0.44799403714 -0.34984845315 -0.70977858545 0.61140855364 -0.39006581745 -0.558423369 0.73212840337 
-0.39923513591 -0.41637628095 0.81684888377 -0.38438181587 -0.29327735189 0.87535079511 -0.35133771321 -0.19291111014 0.91615889171 
-0.30429697737 -0.11644091727 0.94543369009 -0.24617308175 -0.064221373016 0.96709587377 -0.17910844774 -0.036588390423 0.98314874441 
-0.10496658415 -0.034035934377 0.99389313881 -0.025835590563 -0.057011511597 0.9980391825 0.055460479116 -0.10535079123 0.99288737833 
0.13496020184 -0.17738094129 0.97484447251 0.20756204392 -0.26892476445 0.94053041896 0.2677672934 -0.37291591102 0.88838865363 
0.31114213571 -0.48030586086 0.82005905361 0.33580678176 -0.58217566733 0.74047639915 0.34296561664 -0.67195553982 0.65639190908 
0.33621289993 -0.74641609068 0.5743029736 0.32026200814 -0.80524453877 0.49901250378 0.29984883885 -0.84992666095 0.43326128935 
0.27914562186 -0.88268534205 0.37807976502 0.26158859196 -0.90578717745 0.33334816291 0.24989799466 -0.92117754191 0.2983000646 
0.24616670068 -0.93031889421 0.27186156504 0.25192417507 -0.93412989554 0.25285479682 0.26816713835 -0.93297074807 0.24010824466 
0.29534657814 -0.92666811732 0.23250075082 0.33331186453 -0.91458964334 0.22897376544 0.38124785902 -0.89578082722 0.22853179117 
0.43762914934 -0.86917602442 0.23024718506 0.50024427597 -0.83387060361 0.23327126009 0.56634214126 -0.78939784824 0.23687046299 
0.63291111205 -0.73593249913 0.24047220413 0.69702804123 -0.67436091918 0.24369911861 0.75621109715 -0.60616679963 0.24638706861 
0.80865052477 -0.5331982732 0.24856373476 0.85327360887 -0.45740917092 0.25040167485 0.88967376428 -0.38065351884 0.25215767241 
0.91796387942 -0.30457095582 0.25412368829 0.93861962184 -0.23055544652 0.2565879802 0.95234754433 -0.15979648097 0.25980615752 
0.95999677725 -0.093337255781 0.26399686428 0.96251024755 -0.032113916809 0.26933755719 0.96089039799 0.023019191401 0.27597057793 
0.95616678136 0.071305398217 0.28400814496 0.94935503195 0.11208246128 0.29353457238 0.94140786721 0.1447886829 0.30461034924 
0.93315902035 0.16897526598 0.31727212644 0.9252697606 0.18429329011 0.3315295663 0.91818603613 0.19047797011 0.34735075349 
0.91210152782 0.18733228227 0.3646606902 0.90693585843 0.17470407449 0.38333514717 0.90232921504 0.15247200706 0.40318020133 
0.89763980107 0.12057381843 0.42391596082 0.89195238251 0.079003789036 0.44517339167 0.884095231 0.027889902919 0.46647376758 
0.8726824593 -0.03243018989 0.48721002454 0.85617224915 -0.1013364618 0.50665570291 0.83296979135 -0.17777674587 0.52398163644 
0.80159360956 -0.26016008613 0.53829770081 0.76089440868 -0.34629758808 0.54874190593 0.71031051765 -0.43343063405 0.55461414874 
0.65010352637 -0.51840143576 0.55554059833 0.58147828527 -0.59801043432 0.55160359336 0.50653438069 -0.66942366187 0.54341041774 
0.42802249998 -0.73055003693 0.53206520564 0.34898822862 -0.78027078983 0.51902284229 0.27240467142 -0.81845174534 0.50589765322 
0.20089794128 -0.84576991337 0.49428055882 0.13663645984 -0.86344021655 0.4855939356 0.081323255223 -0.87292947873 0.48102042922 
0.036266516574 -0.87571149822 0.48147077966 0.0024729383423 -0.87308363193 0.48756420729 -0.019300577751 -0.86602946061 0.49962031689 
-0.028541307733 -0.85514255338 0.51760661428 -0.025062736907 -0.84062246664 0.5410413365 -0.0092053724009 -0.8223579411 0.56889601671 
0.017869508961 -0.80015420903 0.59952808309 0.053898012702 -0.77411831602 0.6307422905 0.095378546554 -0.74511394304 0.66008192275 
0.13780957932 -0.71507501449 0.68532929567 0.17634057344 -0.68692980449 0.70500457152 0.20659577117 -0.66405754149 0.71857203461 
0.2253382772 -0.64949560539 0.72620804141 0.2253382772 -0.64949560539 0.72620804141 
FrenetNormal 3 128 double
-0.15409775273 -0.88140182268 0.44652514999 -0.15409775273 -0.88140182268 0.44652514999 -0.11978148807 -0.88183683623 0.45608791848 
-0.065586141413 -0.88016658835 0.47011193858 0.0060714213031 -0.87345179098 0.48687278285 0.091311549166 -0.85861842625 0.50441708842 
0.18483771059 -0.83331146372 0.52098658829 0.2805446349 -0.79659817813 0.53546806667 0.37254525442 -0.74922693381 0.54760299037 
0.45615936259 -0.69334508678 0.55784516361 0.52848172626 -0.6320267835 0.56678850548 0.58848107799 -0.56901272283 0.5743818783 
0.63694367438 -0.509096426 0.57889859622 0.67665160995 -0.45941957916 0.57539225667 0.71292694399 -0.4321955929 0.55221566621 
0.75277733398 -0.44945630212 0.48095251109 0.78852113473 -0.54294033978 0.2888774957 0.72383495618 -0.67886679882 -0.12329973917 
0.49610258385 -0.67867541269 -0.54155508538 0.33006975561 -0.5937386172 -0.73384495016 0.27747266558 -0.51344384594 -0.81202483762 
0.29477176594 -0.43051719652 -0.85309117303 0.35565149191 -0.32254114589 -0.87719964974 0.44482260807 -0.16939743774 -0.87945287278 
0.5432711275 0.036072183313 -0.83878202151 0.6225624981 0.26774992085 -0.73534068012 0.66419514697 0.46979725009 -0.5814940675 
0.68044341779 0.60347324192 -0.41571240237 0.70017012348 0.66481605458 -0.26034863502 0.75224652142 0.6508930766 -0.10229063421 
0.86101305369 0.49311539558 0.12447380455 0.84556795857 -0.10679171465 0.52307777349 0.2934768879 -0.71844675939 0.63063901734 
-0.043555061171 -0.82560350598 0.56256715826 -0.20675008657 -0.81278503058 0.54464198862 -0.31065847629 -0.76244548068 0.56759862588 
-0.39067691222 -0.68244259354 0.61777314346 -0.45687127722 -0.56749286042 0.6849967076 -0.50840072 -0.40956917275 0.75748386164 
-0.53732303586 -0.20443347258 0.81822424214 -0.53167227405 0.039314822474 0.84603719643 -0.48262720657 0.29432754158 0.82488925181 
-0.39197286387 0.52374285753 0.75634032893 -0.27087222524 0.70141650668 0.65927469369 -0.13024342349 0.82057830394 0.5564960896 
0.025375120815 0.8855718228 0.46380885061 0.19811424912 0.89990011743 0.38849777727 0.39278413413 0.85789282645 0.33127107071 
0.60805048586 0.74025390039 0.2868776213 0.81819183538 0.52112705528 0.24287592053 0.96122699689 0.20646401403 0.18279844461 
0.9865144066 -0.12977135417 0.099743276523 0.91436313348 -0.4048947616 0.00054050898562 0.79637887873 -0.59514371583 -0.10763196095 
0.66393926881 -0.71411766599 -0.2218571758 0.52777612325 -0.77874137101 -0.33913749541 0.3901530026 -0.80111071567 -0.45387471377 
0.25288730476 -0.78993681322 -0.55861242576 0.11932802744 -0.7534988003 -0.64652948874 -0.0061152124354 -0.70035633501 -0.71376719467 
-0.11875065467 -0.63853400578 -0.76037662081 -0.21387900867 -0.57461773746 -0.78998115512 -0.28657968512 -0.51343213376 -0.80886310838 
-0.32929202877 -0.45784995841 -0.82579669131 -0.3270280261 -0.40812406504 -0.8523423125 -0.24182262376 -0.35768772096 -0.90198742392 
0.029726538778 -0.2731141496 -0.96152222761 0.56833396789 -0.068668753031 -0.81992749881 0.89867275658 0.1524652153 -0.41126832446 
0.95183763103 0.26443541266 -0.15517421401 0.9419164769 0.33363412323 -0.038491847992 0.91869557627 0.39470007214 0.014501420405 
0.88851211801 0.45731361469 0.037556277381 0.85104198878 0.52315838117 0.045087044101 0.80536111895 0.59111902162 0.044404620946 
0.75118347005 0.65891421818 0.039439160754 0.68899005254 0.72402530974 0.032864241298 0.61994626576 0.78419481105 0.026554206503 
0.54563400114 0.83773645248 0.02193565571 0.46778708574 0.88361355639 0.020058050395 0.38808203765 0.92137074865 0.021639676076 
0.30797013133 0.95100369009 0.027319949685 0.22869181334 0.97277601737 0.03750832634 0.15125946615 0.9870903008 0.05266224426 
0.076416615957 0.99435021873 0.073675934397 0.0047122734243 0.99479652136 0.10177266607 -0.063766475683 0.98815233408 0.13960229665 
-0.12933387074 0.97300552274 0.19113608395 -0.193213397 0.94495077686 0.26407690649 -0.25727680837 0.89228295136 0.37099835388 
-0.32259395887 0.78303789958 0.53177512683 -0.37714059378 0.54032526197 0.75220581213 -0.36822074189 0.086969762979 0.9256617879 
-0.27352113284 -0.38450837879 0.88166858656 -0.18160527788 -0.65891922234 0.72996231511 -0.13210014205 -0.79252749521 0.5953568021 
-0.11737984585 -0.86170566698 0.49364492836 -0.12712764305 -0.90106898854 0.41462421572 -0.1552533009 -0.92398707247 0.34949149127 
-0.19767833886 -0.93583336314 0.29178620733 -0.25188122148 -0.93802963092 0.23802575864 -0.31556915703 -0.9305032666 0.18595638731 
-0.38643165672 -0.91246580953 0.13444969735 -0.46190093853 -0.88301787371 0.083228346692 -0.53919459761 -0.84153831768 0.032900543885 
-0.61540920097 -0.78806093468 -0.015214420556 -0.6876742193 -0.7235746138 -0.059531053809 -0.75378425597 -0.64979624883 -0.097847485719 
-0.81227481967 -0.56907350438 -0.12792561877 -0.86261383035 -0.48389721765 -0.14744782955 -0.90515509807 -0.39630012988 -0.15375453 
-0.94082486549 -0.30715766733 -0.14318777836 -0.97027240218 -0.2154930566 -0.11015538173 -0.99227805881 -0.116258909 -0.043221754709 
-0.99677109678 0.0028392736435 0.080245368379 -0.93792020212 0.16708386479 0.30395505683 -0.66353685784 0.38489764553 0.64153927452 
-0.11636557298 0.51713930577 0.84795400338 0.3058250649 0.50881670056 0.80472143932 0.52031364594 0.48189688924 0.70501709056 
0.63041219433 0.47443204025 0.61440597687 0.69118089384 0.4848032848 0.535942858 0.72521857851 0.50624202579 0.4666658598 
0.74304819847 0.53214832079 0.40582944624 0.75080082693 0.55704311868 0.35496631136 0.75266951801 0.57710368584 0.31692259694 
0.75238473539 0.58956301049 0.29382421039 0.75238473539 0.58956301049 0.29382421039 
FrenetBinormal 3 128 double
-0.12788480562 0.46591379552 0.8755397259 -0.12788480562 0.46591379552 0.8755397259 -0.12734729564 0.46924766412 0.87383596631 
-0.12674978286 0.47465852842 0.87099585185 -0.1264573923 0.48230230456 0.86682928824 -0.12699040669 0.4923576669 0.86107918594 
-0.1290217741 0.50495691527 0.85344706662 -0.13334021751 0.52011762028 0.84362198138 -0.14075267777 0.53763550698 0.83134634499 
-0.1519112025 0.5569927727 0.81650599368 -0.16699228213 0.57720172181 0.79934457529 -0.18518947356 0.59666918272 0.78082696244 
-0.20383704111 0.61298477223 0.76334797418 -0.21681037472 0.62249433643 0.75199339261 -0.210993585 0.61878442547 0.75669514461 
-0.15728012861 0.58666034433 0.79441336943 0.0091295011342 0.47999549522 0.87722344746 0.34891187419 0.20597418136 0.91424019856 
0.64714869278 -0.12680398565 0.75174418432 0.75715393288 -0.29773087083 0.58144152799 0.79014487071 -0.35884321035 0.4968929801 
0.80048370318 -0.37630460773 0.46649832062 0.80149823074 -0.37751605706 0.46376956863 0.796458673 -0.37428290563 0.47493777356 
0.78608015996 -0.37272374126 0.4931074881 0.77007472696 -0.3768483309 0.51475261087 0.74710937245 -0.39017515391 0.53813653925 
0.71373555447 -0.41721780268 0.56259298202 0.66118721512 -0.46615145439 0.58782164654 0.56373287734 -0.55544618257 0.61129762086 