# vtk DataFile Version 4.2
vtk output
ASCII
DATASET POLYDATA
POINTS 128 float
0 0 0 -0.238164 -0.02245 0.238036 -0.728051 -0.079903 0.676031 
-1.18989 -0.160237 0.9693 -1.62438 -0.264698 1.11424 -2.09707 -0.39667 1.19064 
-2.58513 -0.551316 1.1899 -3.04989 -0.721852 1.08999 -3.48656 -0.902442 0.914013 
-3.89976 -1.08842 0.694231 -4.29235 -1.27942 0.4444 -4.66708 -1.47666 0.173062 
-5.0285 -1.68301 -0.109613 -5.38164 -1.90216 -0.392956 -5.73075 -2.13974 -0.666364 
-6.07949 -2.40191 -0.918261 -6.4295 -2.69423 -1.13146 -6.7809 -3.02046 -1.28802 
-7.12873 -3.37448 -1.37725 -7.46702 -3.74665 -1.394 -7.79474 -4.12746 -1.35116 
-8.11321 -4.50841 -1.26811 -8.4264 -4.88716 -1.16161 -8.73921 -5.2639 -1.04699 
-9.05512 -5.63954 -0.937167 -9.37677 -6.01518 -0.844245 -9.70524 -6.39122 -0.78189 
-10.0401 -6.76747 -0.764469 -10.3749 -7.1416 -0.806367 -10.6998 -7.51015 -0.920762 
-11.0001 -7.86844 -1.11095 -11.2594 -8.21153 -1.37439 -11.4671 -8.53712 -1.69948 
-11.6158 -8.84456 -2.07014 -11.7064 -9.13622 -2.47115 -11.744 -9.41605 -2.8882 
-11.7353 -9.68846 -3.31146 -11.6878 -9.95802 -3.73375 -11.6082 -10.2286 -4.15043 
-11.5027 -10.5037 -4.5583 -11.3764 -10.7864 -4.95485 -11.2335 -11.0792 -5.33795 
-11.0777 -11.3849 -5.70584 -10.912 -11.7062 -6.0567 -10.7399 -12.046 -6.38556 
-10.5655 -12.4076 -6.68567 -10.3905 -12.7952 -6.9544 -10.2161 -13.2138 -7.18863 
-10.061 -13.6709 -7.33894 -9.95616 -14.1712 -7.3262 -9.92623 -14.6461 -7.12585 
-9.98798 -14.9767 -6.76036 -10.1202 -15.1447 -6.29181 -10.2772 -15.2014 -5.80487 
-10.4376 -15.1843 -5.3303 -10.598 -15.1193 -4.86001 -10.7553 -15.0208 -4.39178 
-10.9067 -14.8946 -3.9283 -11.0505 -14.7466 -3.46965 -11.1858 -14.5831 -3.01377 
-11.3119 -14.4095 -2.55882 -11.4284 -14.2311 -2.10318 -11.535 -14.0537 -1.64478 
-11.6317 -13.8842 -1.18114 -11.7186 -13.7312 -0.709889 -11.7961 -13.6046 -0.228871 
-11.8644 -13.5161 0.262021 -11.9236 -13.4785 0.760791 -11.9741 -13.5008 1.26184 
-12.016 -13.5879 1.75613 -12.0493 -13.7378 2.23614 -12.0743 -13.9415 2.69622 
-12.091 -14.1891 3.13421 -12.099 -14.4703 3.55158 -12.0977 -14.7766 3.9507 
-12.0861 -15.1015 4.3347 -12.063 -15.4394 4.70656 -12.0269 -15.7864 5.06896 
-11.976 -16.1389 5.42417 -11.9088 -16.4941 5.77392 -11.8237 -16.8496 6.11955 
-11.7198 -17.2031 6.46196 -11.5958 -17.5528 6.8017 -11.4514 -17.897 7.13889 
-11.2858 -18.2342 7.47354 -11.0987 -18.5627 7.80548 -10.8892 -18.8805 8.13441 
-10.6558 -19.1851 8.4598 -10.3965 -19.4733 8.78058 -10.1081 -19.7407 9.09487 
-9.7873 -19.9813 9.39966 -9.43073 -20.186 9.6902 -9.03683 -20.3466 9.96035 
-8.60725 -20.4558 10.2017 -8.14703 -20.5085 10.4037 -7.66668 -20.5024 10.5521 
-7.17588 -20.445 10.6456 -6.68165 -20.3608 10.7073 -6.18879 -20.2739 10.7637 
-5.69831 -20.205 10.8431 -5.20935 -20.1661 10.9541 -4.7181 -20.1541 11.0656 
-4.22211 -20.1639 11.151 -3.72254 -20.19 11.2036 -3.22118 -20.2212 11.2319 
-2.72014 -20.2339 11.273 -2.22372 -20.2096 11.3567 -1.74132 -20.1447 11.4872 
-1.28085 -20.0406 11.6626 -0.844898 -19.905 11.8758 -0.434283 -19.7458 12.1196 
-0.0472598 -19.5686 12.388 0.318798 -19.3788 12.6762 0.66782 -19.1811 12.9799 
1.00384 -18.98 13.2955 1.33058 -18.7788 13.6207 1.65197 -18.5813 13.9534 
1.97274 -18.3926 14.2917 2.29706 -18.2175 14.6342 2.62675 -18.0585 14.9791 
2.96578 -17.9224 15.3239 3.3266 -17.8302 15.6649 3.71448 -17.798 15.9958 
4.10389 -17.8136 16.3022 4.48525 -17.8805 16.5729 4.93442 -18.086 16.8163 
5.44956 -18.441 17.0232 5.70764 -18.6412 17.1133 
LINES 1 129
128 0 1 2 3 4 5 6 7 8 9 10 11 12 13 14 15 16 17 18 19 20 21 22 23 24 25 26 27 28 29 30 31 32 33 34 35 36 37 38 39 40 41 42 43 44 45 46 47 48 49 50 51 52 53 54 55 56 57 58 59 60 61 62 63 64 65 66 67 68 69 70 71 72 73 74 75 76 77 78 79 80 81 82 83 84 85 86 87 88 89 90 91 92 93 94 95 96 97 98 99 100 101 102 103 104 105 106 107 108 109 110 111 112 113 114 115 116 117 118 119 120 121 122 123 124 125 126 127 

CELL_DATA 1
FIELD FieldData 2
Length 1 1 double
58.216048196 
Tortuosity 1 1 double
1.2441696059 
POINT_DATA 128
SCALARS MaximumInscribedSphereRadius float
LOOKUP_TABLE default
0.62 0.62 0.62 0.636197 0.653578 0.730446 0.808281 0.958623 1.11253 
1.32482 1.54089 1.5338 1.50779 1.4197 1.32507 1.31272 1.31083 1.29481 
1.2767 1.29361 1.3164 1.38146 1.45462 1.43068 1.3857 1.31553 1.23924 
1.18744 1.14224 1.02054 0.876161 0.791344 0.725719 0.786198 0.890707 0.994116 
1.09711 1.16986 1.23014 1.24968 1.25099 1.24762 1.24199 1.24363 1.24907 
1.29059 1.35247 1.43387 1.52692 1.5791 1.60258 1.64299 1.69295 1.82427 
2.00459 2.06191 2.03872 1.97103 1.87212 1.73574 1.57115 1.45124 1.36742 
1.36857 1.44333 1.53144 1.63195 1.72258 1.8034 1.84934 1.85837 1.89509 
1.96309 2.02449 2.07793 2.0765 2.00403 1.9419 1.89412 1.86441 1.86168 
1.86 1.86 1.86 1.86 1.86142 1.86549 1.88498 1.93545 1.99678 
2.08171 2.14672 2.16494 2.16156 2.10348 2.03774 1.95093 1.93616 2.13499 
2.33079 2.51667 2.59105 2.26184 1.97055 1.82939 1.74861 1.93944 2.09616 
2.08469 2.05804 1.94619 1.85289 1.87898 1.90564 1.93649 1.96561 1.97903 
1.99561 2.04724 2.09231 2.04252 1.9774 1.62808 1.28624 1.37985 1.48996 
1.82998 2.17 
TEXTURE_COORDINATES TCoords 2 float
0 0 0.00787402 0 0.015748 0 0.023622 0 0.0314961 
0 0.0393701 0 0.0472441 0 0.0551181 0 0.0629921 0 
0.0708661 0 0.0787402 0 0.0866142 0 0.0944882 0 0.102362 
0 0.110236 0 0.11811 0 0.125984 0 0.133858 0 
0.141732 0 0.149606 0 0.15748 0 0.165354 0 0.173228 
0 0.181102 0 0.188976 0 0.19685 0 0.204724 0 
0.212598 0 0.220472 0 0.228346 0 0.23622 0 0.244094 
0 0.251969 0 0.259843 0 0.267717 0 0.275591 0 
0.283465 0 0.291339 0 0.299213 0 0.307087 0 0.314961 
0 0.322835 0 0.330709 0 0.338583 0 0.346457 0 
0.354331 0 0.362205 0 0.370079 0 0.377953 0 0.385827 
0 0.393701 0 0.401575 0 0.409449 0 0.417323 0 
0.425197 0 0.433071 0 0.440945 0 0.448819 0 0.456693 
0 0.464567 0 0.472441 0 0.480315 0 0.488189 0 
0.496063 0 0.503937 0 0.511811 0 0.519685 0 0.527559 
0 0.535433 0 0.543307 0 0.551181 0 0.559055 0 
0.566929 0 0.574803 0 0.582677 0 0.590551 0 0.598425 
0 0.606299 0 0.614173 0 0.622047 0 0.629921 0 
0.637795 0 0.645669 0 0.653543 0 0.661417 0 0.669291 
0 0.677165 0 0.685039 0 0.692913 0 0.700787 0 
0.708661 0 0.716535 0 0.724409 0 0.732283 0 0.740157 
0 0.748031 0 0.755906 0 0.76378 0 0.771654 0 
0.779528 0 0.787402 0 0.795276 0 0.80315 0 0.811024 
0 0.818898 0 0.826772 0 0.834646 0 0.84252 0 
0.850394 0 0.858268 0 0.866142 0 0.874016 0 0.88189 
0 0.889764 0 0.897638 0 0.905512 0 0.913386 0 
0.92126 0 0.929134 0 0.937008 0 0.944882 0 0.952756 
0 0.96063 0 0.968504 0 0.976378 0 0.984252 0 
0.992126 0 1 0 
FIELD FieldData 7
Curvature 1 128 double
0 0.059253017024 0.10974512654 0.15429347123 0.18869008053 0.20870466755 0.21202211243 0.19967001122 0.17573737795 
0.14579365368 0.11556112088 0.090932695076 0.078391008097 0.081121631294 0.09388381694 0.10852361802 0.11923950624 0.12258221798 
0.11698735309 0.10261409101 0.081026371946 0.055001007404 0.031026735587 0.033230987501 0.062311814602 0.097418576763 0.13348169115 
0.1680921117 0.19868494187 0.22239173589 0.23662420902 0.23999562809 0.23289800497 0.21738481247 0.19640972009 0.17311827714 
0.15021887121 0.13007254387 0.11492789614 0.10725586389 0.10932904481 0.12261092084 0.14790468628 0.18701432043 0.24422786831 
0.32733943472 0.44710327925 0.61167688586 0.80722909897 0.96847620138 0.9977512275 0.87177870408 0.67424572716 0.49030967985 
0.35000794144 0.24980453579 0.17810429153 0.12499962826 0.083815989638 0.051146488403 0.029330411535 0.032523824401 0.053763828952 
0.078566609623 0.10335102074 0.12655856098 0.14671857047 0.16232870434 0.17206728644 0.17523517004 0.17194726925 0.1632037484 
0.15055849137 0.1357968802 0.12061480936 0.1064700779 0.094487137255 0.085553202278 0.080230931741 0.078598186944 0.080416303278 
0.085133250098 0.092269968461 0.10143063138 0.11243757909 0.12510766921 0.13917468723 0.15410784559 0.16887542049 0.18193536522 
0.19126301664 0.19477108132 0.19093930816 0.17938755194 0.16129188713 0.13873107001 0.1142462768 0.090077788565 0.067814491615 
0.048520295989 0.033892693679 0.028580050095 0.036097506209 0.051151413224 0.068700442234 0.085912249689 0.10080622903 0.11150580621 
0.11666687514 0.11570581405 0.10887337135 0.097209704759 0.08235710141 0.066638322002 0.053737689513 0.049575964814 0.057973919563 
0.075346894238 0.096268331805 0.11671799398 0.13323455733 0.14245590233 0.1415982981 0.12914611682 0.10573909955 0.073574577547 
0.035761585331 0 
Torsion 1 128 double
0 0 0.015951445601 0.024391603328 0.03613277613 0.053000165206 0.078184084958 0.11730171279 0.18067454506 
0.28769720616 0.47061521965 0.74399686421 0.9413296986 0.79459004547 0.5117901538 0.30992474152 0.18865876685 0.11094100725 
0.049538968679 -0.019826723479 -0.14285417314 -0.48861371239 -1.880658174 -1.7326577146 -0.44988123011 -0.13180744239 -0.020104096472 
0.034275874006 0.067882062978 0.092814170473 0.11431905641 0.13533428465 0.15829758615 0.18562648061 0.22077346477 0.26862138248 
0.33522326663 0.42521378331 0.53037446847 0.61218001732 0.61407455978 0.5291471239 0.411059699 0.30373597581 0.22008981834 
0.15670983161 0.10782068933 0.068970992791 0.03796705878 0.013802637676 -0.0058252616367 -0.024156308991 -0.043031157205 -0.062639852677 
-0.0833980082 -0.10813042381 -0.14389381183 -0.20761980303 -0.34973607834 -0.76421784254 -2.0379278266 -1.5525884773 -0.55732353904 
-0.26023355027 -0.14768351916 -0.091938102796 -0.057833829612 -0.03297540419 -0.011712813161 0.0088524650547 0.030895612635 0.056399250564 
0.087151641548 0.12502286994 0.17148555747 0.2260999636 0.28417848313 0.33422397542 0.36009233083 0.35096098882 0.31112846608 
0.2563709372 0.20004595922 0.15025674169 0.1090717262 0.07582430268 0.049488705401 0.028741596102 0.012275232018 -0.00073567640912 
-0.011578439882 -0.020966662934 -0.029855126441 -0.038456088907 -0.046364031864 -0.051789741067 -0.048147301835 -0.02168502973 0.060414928329 
0.27709817168 0.77796525504 1.1972742145 0.71115239675 0.30276169692 0.13626574117 0.073676114014 0.05223338172 0.050467506395 
0.060339757979 0.080912386442 0.11670700372 0.1786985781 0.29106748509 0.5000813411 0.83762398473 1.0393260115 0.77763949887 
0.45500274632 0.26363302875 0.16030769855 0.10216527651 0.067212529451 0.045242524409 0.030705386402 0.020165731509 0.012741878346 
0 0 
Abscissas 1 128 double
0 0.50293489005 1.0058697801 1.5088067078 2.0117437842 2.5146779713 3.0176121114 3.5205488809 4.0234857796 
4.5264189253 5.0293518279 5.5322871243 6.0352226235 6.5381559013 7.0410889446 7.5440261836 8.0469639555 8.5499008965 
9.0528377139 9.5557695837 10.058700623 10.561636187 11.064572618 11.567507417 12.070441864 12.573375695 13.076309376 
13.579238101 14.082165488 14.585114527 15.088069986 15.59100489 16.09393317 16.596866381 17.099801313 17.602736381 
18.1056715 18.608593755 19.111510711 19.614451396 20.117402693 20.620345193 21.123283438 21.626204742 22.129117191 
22.632055827 23.135009247 23.637965549 24.140923572 24.643852845 25.14676193 25.64968874 26.152625536 26.655569039 
27.158516584 27.661452602 28.164381076 28.667307072 29.170231328 29.673168899 30.176116496 30.679058792 31.181996805 
31.684928024 32.187853356 32.690782883 33.193716306 33.696652388 34.199591111 34.702529503 35.205467545 35.708397442 
36.211318144 36.714250364 37.217196497 37.720141058 38.223083583 38.726022778 39.228957347 39.731883748 40.234797965 
40.737720164 41.24065517 41.743594337 42.246540689 42.749481277 43.252411145 43.755351999 44.258314915 44.761261409 
45.264172268 45.767092675 46.270035516 46.77297262 47.275895196 47.778822204 48.281761404 48.784696975 49.287621781 
49.790551288 50.293496159 50.796437195 51.299364346 51.802294357 52.305235691 52.808175256 53.311106858 53.814039557 
54.316977666 54.819915099 55.322848728 55.825783715 56.328727443 56.83166835 57.334588019 57.837509979 58.340452595 
58.843395287 59.346338826 59.849281593 60.352213203 60.855144561 61.358071252 61.860998128 62.363935789 62.866874441 
63.36982693 63.872779418 
ParallelTransportNormals 3 128 double
0.67789096666 0 0.73516245641 0.5607601825 -0.019309372037 0.81449459607 0.44362939834 -0.038618744074 0.89382673574 
0.27951834919 -0.079913318653 0.9408880719 0.11197582521 -0.1228137094 0.98559232365 -0.044789263739 -0.17653950115 0.96862954079 
-0.20137917657 -0.23044124865 0.95066442373 -0.28694302521 -0.26652345379 0.91499474988 -0.36901408813 -0.30172936311 0.87845443475 
-0.40572079254 -0.32002688597 0.85498588757 -0.43949023015 -0.33722961891 0.83236371562 -0.44033022136 -0.33748877129 0.83198742931 
-0.43837921778 -0.33631183983 0.83349663329 -0.40211687094 -0.30985964031 0.85965244449 -0.36223410659 -0.28074047953 0.88840888278 
-0.28423223989 -0.21172002747 0.92755981849 -0.20138887984 -0.13763172688 0.96803095556 -0.11192845904 -0.044558039602 0.98388841952 
-0.021484690596 0.051337026565 0.99608809665 0.033119920272 0.1138503194 0.99009791153 0.08170925272 0.17076078354 0.98105472256 
0.096242678379 0.18797059991 0.97736525208 0.10425010072 0.19757273282 0.97470169422 0.084883152351 0.1749085209 0.98013160611 
0.0595828715 0.14525065226 0.98731575913 0.0041622177457 0.082140009586 0.99218293988 -0.058578949474 0.01089894026 0.99648699923 
-0.14581120817 -0.089052409566 0.97481743276 -0.23965389276 -0.1967529927 0.94613728741 -0.32663869987 -0.30734660732 0.87992606195 
-0.41158990544 -0.41879810738 0.80258555312 -0.46462916752 -0.50826468159 0.7137439524 -0.50738645954 -0.59064775273 0.62119672082 
-0.52493125177 -0.64679855827 0.54742090187 -0.53367294896 -0.69379021145 0.48019923386 -0.53400467417 -0.72255221617 0.43731147004 
-0.53114728912 -0.74440143224 0.40365126412 -0.52888088755 -0.7548281419 0.38783891726 -0.52685798265 -0.76054855695 0.37938023514 
-0.52834435879 -0.75783619223 0.38265257044 -0.53139989422 -0.75135314783 0.39117037759 -0.5390753384 -0.73603649288 0.40840549036 
-0.54898642011 -0.71644513205 0.42985902745 -0.56511582898 -0.68315960931 0.4594713586 -0.58449602158 -0.64271512606 0.49334890034 
-0.61611120218 -0.56546567253 0.53734689227 -0.65463398211 -0.46743695968 0.58705866298 -0.70672155338 -0.24926249414 0.60067144853 
-0.76691848775 0.040738032576 0.59270338035 -0.7723237919 0.31681350346 0.44156476792 -0.73925471126 0.58311087587 0.18989257791 
-0.6965969933 0.69963234489 -0.0026571297236 -0.64853744211 0.73177639665 -0.16189972819 -0.61759193992 0.73973896805 -0.26012736131 
-0.59695545478 0.73313530248 -0.32160131225 -0.58296275357 0.725875301 -0.36383948755 -0.57331811214 0.71818575699 -0.39348870704 
-0.56766389667 0.7130459493 -0.4113744641 -0.56480941769 0.70969507088 -0.42100681778 -0.56482046724 0.71010401141 -0.42030732848 
-0.56698910199 0.71334388857 -0.4118285303 -0.57153051469 0.7208419182 -0.39094152614 -0.57798872477 0.73177980427 -0.36003082096 
-0.58636557667 0.74514216908 -0.31242785498 -0.59640454642 0.76060485783 -0.25036439703 -0.60721789895 0.77126971539 -0.17063352543 
-0.61875026253 0.77747980753 -0.074498537065 -0.62906301388 0.77111402852 0.026818472099 -0.63816436733 0.75225707958 0.13328260003 
-0.6450203236 0.72507159463 0.22831681589 -0.64949934192 0.68906966804 0.311251528 -0.65230601616 0.65325234525 0.38044897365 
-0.65322476621 0.61764342334 0.43413829645 -0.65319234988 0.58497290249 0.47925805816 -0.65201102493 0.55585166003 0.51402669445 
-0.65019807991 0.52909397633 0.54450180077 -0.64756759074 0.50539559001 0.56941953103 -0.64436463481 0.48313676338 0.59229948414 
-0.64036662265 0.46287723347 0.61234932108 -0.63577938205 0.44352130567 0.6313831582 -0.63031319859 0.425513267 0.6489014443 
-0.62423089768 0.40812157571 0.66588973608 -0.61716021457 0.39171863547 0.6820278053 -0.60940428921 0.37574210894 0.69793255565 
-0.60046530639 0.36050177743 0.71343448551 -0.590403676 0.34525911875 0.72927358727 -0.57825358205 0.33001213082 0.74573993062 
-0.56370627075 0.31421206703 0.76348222008 -0.54434483897 0.29730130972 0.78378687973 -0.52070694229 0.28027593271 0.80574063313 
-0.4877902228 0.26300186059 0.83127249344 -0.44788963364 0.2472175881 0.85798058111 -0.39157735631 0.23493425822 0.88745273475 
-0.32965974894 0.22666073139 0.91480449949 -0.25355145815 0.22853858641 0.93678820075 -0.1930173073 0.23060784355 0.95363106317 
-0.17533819071 0.23320377789 0.95632798719 -0.17030981164 0.23420099546 0.95689794823 -0.2027930283 0.23045774496 0.95116110103 
-0.2175016612 0.22776868138 0.94868297019 -0.17410093617 0.22852600656 0.95685836114 -0.13075537353 0.2287512225 0.96428291733 
-0.087609495069 0.22705023812 0.96898950135 -0.068683993218 0.22549500679 0.97068265495 -0.14562787683 0.2245166969 0.96044801208 
-0.22748832759 0.22066608714 0.94632321866 -0.33146467164 0.20389518665 0.914699599 -0.43039974294 0.18585610092 0.88196641575 
-0.50446992219 0.16156198985 0.84376057105 -0.57432259684 0.13765885464 0.80632574481 -0.62048208432 0.11595215197 0.77322236244 
-0.66388517618 0.095200895381 0.74151327355 -0.68954062495 0.080601482775 0.71878164147 -0.71357448394 0.066875969928 0.69732729187 
-0.7253969891 0.059731344119 0.68549149583 -0.73606211604 0.053287192829 0.67481331639 -0.73629226877 0.05315855135 0.67457226047 
-0.73544752301 0.053485831516 0.67542464168 -0.72266625429 0.058876026217 0.68841941367 -0.70826004609 0.064338827613 0.7027770428 
-0.67037367174 0.070850786396 0.73682778216 -0.63146361226 0.076586277507 0.7712737992 -0.57358898462 0.067937097581 0.81304264439 
-0.51542521759 0.058789832371 0.85475241598 -0.4404278635 0.020644228477 0.89302294469 -0.37044959925 -0.014948535856 0.92873227342 
-0.37044959925 -0.014948535856 0.92873227342 -0.37044959925 -0.014948535856 0.92873227342 
FrenetTangent 3 128 double
-0.92435755308 -0.22859284317 0.3054642796 -0.92435755308 -0.22859284317 0.3054642796 -0.93228133988 -0.24070077367 0.27002711137 
-0.94174402286 -0.25913560134 0.21439901011 -0.94879029049 -0.28229044372 0.1418065233 -0.94957712885 -0.30821267003 0.057517183513 
-0.94167978129 -0.33503584128 -0.031467039357 -0.92493307912 -0.36147958259 -0.11760659217 -0.90130337219 -0.38714404441 -0.19434947941 
-0.87393862477 -0.41244185871 -0.25714391558 -0.84603786491 -0.43825520146 -0.30356598875 -0.82007138912 -0.46551876358 -0.33282908153 
-0.79747090889 -0.49487488599 -0.34516517305 -0.77865158954 -0.52644029593 -0.34141223898 -0.76320655675 -0.55968708106 -0.32290265255 
-0.75018896318 -0.59345625661 -0.29159250851 -0.73844866146 -0.62614258533 -0.25027791997 -0.72698984955 -0.65605016339 -0.20269174076 
-0.71525788456 -0.68183419974 -0.15332410979 -0.70323915121 -0.70286291847 -0.10695052151 -0.69133322478 -0.71932547073 -0.068038514691 
-0.68004990274 -0.73205851092 -0.040279850647 -0.66966325425 -0.7421958979 -0.026388919036 -0.6599367043 -0.75079426689 -0.028133878768 
-0.6499657371 -0.75854231542 -0.046455315286 -0.63814283891 -0.76558923499 -0.08152815722 -0.62225280025 -0.77148935009 -0.13268622872 
-0.59972330656 -0.77526986511 -0.19821350059 -0.56805556063 -0.77564666612 -0.27510930442 -0.52541110245 -0.77139159335 -0.35902393115 
-0.47121259891 -0.76178724178 -0.44456595112 -0.40650013687 -0.74701261972 -0.52605112366 -0.33382302045 -0.72826741456 -0.59848873332 
-0.25667311132 -0.70756249897 -0.65838759404 -0.1787339302 -0.68727976588 -0.70406015767 -0.10323702245 -0.66972386578 -0.73539925265 
-0.032623671697 -0.65682710659 -0.75333514991 0.031491550562 -0.65004385056 -0.75924388348 0.088190297608 -0.65038466153 -0.7544681991 
0.13705720607 -0.65850114332 -0.73999430168 0.1779780488 -0.67478457798 -0.71623291425 0.21096234802 -0.6994316775 -0.68285446197 
0.23597339406 -0.73244737036 -0.63862148958 0.25273838771 -0.77355166377 -0.58115499728 0.26052532458 -0.82187506744 -0.50660431183 
0.25781766625 -0.87523890915 -0.4092516376 0.2419495129 -0.92859069295 -0.2813889802 0.20895863817 -0.97118365434 -0.1146237195 
0.15464798519 -0.98341895779 0.094716176696 0.078596440515 -0.93924840459 0.33411829344 -0.010109059123 -0.82357531265 0.56711684098 
-0.094346284823 -0.65334289956 0.75116032519 -0.16063146256 -0.46776161608 0.86913554971 -0.20586266355 -0.29811508466 0.9320664998 
-0.23344275571 -0.15687735701 0.95963220802 -0.2480698734 -0.044681655561 0.96771115916 -0.25358075478 0.041926895601 0.96640516153 
-0.25268983402 0.10678322998 0.96163672433 -0.24725668839 0.1529493107 0.95680229849 -0.23857272165 0.1825674933 0.95380929272 
-0.22755621467 0.1970248759 0.95362433245 -0.21485551584 0.19717396452 0.95653517187 -0.20090720472 0.18354627666 0.96226142987 
-0.18598353426 0.15656305223 0.969999039 -0.17021836254 0.11676863726 0.9784634865 -0.15364015813 0.065072269631 0.98598189716 
-0.13622107024 0.0029729706432 0.99067400363 -0.11791953804 -0.067304534063 0.99073966421 -0.098719628259 -0.14283738015 0.98481059998 
-0.078639619077 -0.22024723252 0.97226897867 -0.057723225149 -0.29611916409 0.95340519714 -0.036004289069 -0.36745936741 0.92934240432 
-0.013464759415 -0.4320341015 0.90175674957 0.0099844890753 -0.48849220555 0.87251113179 0.034506678415 -0.5362912937 0.84332730149 
0.060325968314 -0.57549929636 0.81557423785 0.087695639303 -0.60655790954 0.79018793791 0.1168700556 -0.63008462693 0.76768141374 
0.1480956859 -0.64673526275 0.74819861517 0.18159702411 -0.6570980593 0.73160416982 0.21758333262 -0.66164778954 0.71755118003 
0.25625896131 -0.66071358062 0.70554157151 0.2978314233 -0.65445701183 0.69496939714 0.34250117755 -0.64287710735 0.6851291617 
0.3904390408 -0.6258060699 0.67522153275 0.44173118336 -0.60292648952 0.66434419534 0.49627519645 -0.57382742264 0.65148524037 
0.5536548499 -0.53809449999 0.63554749332 0.61298849891 -0.49547251621 0.61542837592 0.67282346244 -0.44609757658 0.59017416121 
0.73115466167 -0.39074435149 0.55922420593 0.78564133269 -0.33102800347 0.52267404498 0.83403533239 -0.2693959045 0.48146745576 
0.87469072639 -0.20885258363 0.43737481806 0.9069456412 -0.15240749277 0.39271052961 0.93116562107 -0.10249704501 0.34989275771 
0.94846323348 -0.060581150501 0.31104247129 0.96027221052 -0.02696899307 0.27775880744 0.96796119499 -0.00092164134805 0.25109813934 
0.97259922993 0.019100009851 0.23170223901 0.97487690895 0.035141720752 0.21995470412 0.97511741454 0.049464847168 0.21610010819 
0.97332170069 0.064220394838 0.2202739382 0.96921264294 0.081160826907 0.23246456275 0.96228642051 0.10144950429 0.25241403089 
0.95191653065 0.12549277981 0.27947536725 0.93752120676 0.15288660757 0.31253747312 0.91879526039 0.18249805098 0.35001390097 
0.89594727267 0.21261863896 0.38996384315 0.86982544356 0.24125788001 0.43034675911 0.84188067029 0.26644553419 0.46930130439 
0.81396458834 0.28645833905 0.50537438491 0.78804004396 0.29993344815 0.53761772273 0.76590360081 0.30585729015 0.56554663143 
0.74898931318 0.30347825186 0.58899572103 0.73825598513 0.2921966622 0.60794671725 0.73412226159 0.27152560027 0.62236512871 
0.73642584479 0.24113216612 0.63208563786 0.74439359853 0.200993072 0.63677308004 0.75663328562 0.15168276603 0.63600189433 
0.77122690183 0.094716113229 0.62947432337 0.78599929396 0.032811352754 0.61735607637 0.7989586266 -0.030122199657 0.60063113977 
0.808792438 -0.089375173145 0.58126316816 0.81516358668 -0.14021175437 0.56200444028 0.8186062381 -0.17866088502 0.54586089356 
0.82008313524 -0.20194774122 0.53542577554 0.82008313524 -0.20194774122 0.53542577554 
FrenetNormal 3 128 double
-0.22571025951 -0.31785529682 -0.92088158253 -0.22571025951 -0.31785529682 -0.92088158253 -0.18866726806 -0.31335511212 -0.93070577288 
-0.13041627727 -0.30623161755 -0.94298133122 -0.053982855084 -0.29740620158 -0.95322368971 0.035876744214 -0.28905672044 -0.95663946793 
0.13317186048 -0.28515520291 -0.94918479014 0.23210330611 -0.29202880221 -0.92781853504 0.32870461943 -0.31900320108 -0.88892644851 
0.4214644105 -0.37958112287 -0.82358115681 0.50829886086 -0.49137329544 -0.70723726753 0.57223222419 -0.66121583067 -0.48512256891 
0.55781632339 -0.82275288606 -0.1091725141 0.44076363884 -0.84617649218 0.29952088202 0.31388644285 -0.75793997666 0.57184114296 
0.23565518821 -0.6519928677 0.72067463722 0.20189092743 -0.55943640509 0.80390979723 0.197880087 -0.48283674356 0.85306046107 
0.21358104468 -0.42216159995 0.88100097666 0.24537908812 -0.38114314055 0.89135795813 0.29952600139 -0.3710113167 0.87899646039 
0.40820136222 -0.42369308423 0.808613516 0.66307156308 -0.61352005651 0.42886972672 0.59964292653 -0.50377673286 -0.62180170802 
0.35325803961 -0.24743930153 -0.90220981457 0.2911448675 -0.14192837348 -0.94609249174 0.30159895693 -0.079855441819 -0.95008482652 
0.34702134618 -0.028774938191 -0.9374156966 0.41269127473 0.020747193791 -0.91063464996 0.49017949358 0.070473536905 -0.86876783128 
0.57303805422 0.11875544486 -0.8108788644 0.65605179461 0.16207396896 -0.73710791026 0.73524558751 0.19615754101 -0.64879591949 
0.80822691692 0.21641158005 -0.5476634722 0.87360199518 0.21834020941 -0.43491045857 0.93027874135 0.19665719014 -0.30968921997 
0.97496312872 0.14496659801 -0.16861667502 0.99844252119 0.05545893072 -0.0060695039286 0.98049719219 -0.076870058505 0.18087633956 
0.89275327152 -0.2415652879 0.38031277637 0.7255252891 -0.40173173067 0.55877067877 0.51597288229 -0.5136462502 0.68552134496 
0.31697276871 -0.56322139424 0.76309234367 0.15439019774 -0.56071511351 0.81348769402 0.028076401421 -0.5180532527 0.85488744467 
-0.071224136292 -0.43963486233 0.89534815029 -0.15229500633 -0.32275481639 0.93414964516 -0.22074248227 -0.16102827498 0.96194732245 
-0.27680392328 0.048901008278 0.95968134266 -0.31442756077 0.29469219833 0.90238119289 -0.32494885935 0.53907014409 0.77705316328 
-0.30633898619 0.73696857164 0.6025228211 -0.26647088352 0.86842408003 0.41813022548 -0.2152195479 0.94293962193 0.25405789811 
-0.15815620275 0.97988376642 0.12171450132 -0.096049866738 0.99514803335 0.021326387714 -0.025566354666 0.99842071451 -0.050024377457 
0.062061486288 0.99363325808 -0.094028295464 0.18870208156 0.97615713869 -0.10727891215 0.41548544202 0.9069277361 -0.069670143901 
0.85353841822 0.51174119451 0.097944466186 0.85484856442 -0.43567253163 0.28182153411 0.55792480301 -0.78596910071 0.26640661952 
0.40606969101 -0.88672169394 0.2209797356 0.32689988362 -0.9300323337 0.16785804824 0.28254497843 -0.95327432483 0.10694109026 
0.25804853244 -0.96536933967 0.038379589885 0.2465207397 -0.96845185041 -0.036449119902 0.24464839185 -0.96275431973 -0.11511422243 
0.25106434898 -0.94822912593 -0.19449477476 0.26546713751 -0.92516823319 -0.27127649952 0.28884424922 -0.89408125766 -0.34232689698 
0.32298876237 -0.85537271507 -0.40498861428 0.37049574962 -0.80864489983 -0.45697519133 0.43415061298 -0.75200686016 -0.49598278954 
0.51591093008 -0.68148973182 -0.51904494761 0.61424123101 -0.59156576924 -0.52226205184 0.72128107594 -0.47751338855 -0.50173157489 
0.82175313875 -0.34046685012 -0.45695087583 0.89902497295 -0.19052579324 -0.39427657821 0.94406477317 -0.043971852065 -0.32681520817 
0.95975357324 0.087148275517 -0.26697988075 0.95458327328 0.19792410142 -0.22270344506 0.93673819853 0.2897167718 -0.19643253181 
0.91140138394 0.36632620154 -0.18749035021 0.88093357463 0.43164688873 -0.19400257871 0.84586573524 0.48858380601 -0.2140023889 
0.80562916824 0.53927962424 -0.24523280808 0.75934502099 0.58463388291 -0.28565427013 0.7062871316 0.62472388142 -0.33298432352 
0.64638425432 0.65893561034 -0.38469631815 0.58070942972 0.68597501054 -0.43842313255 0.51143800921 0.70482581418 -0.49158085235 
0.44187507922 0.71441481218 -0.54254759284 0.37549434332 0.715033223 -0.58968761911 0.31554506527 0.70732341315 -0.63255426723 
0.2639068005 0.69435686185 -0.66949365124 0.22070981764 0.68248915285 -0.69677523825 0.18317758739 0.68656688333 -0.70361344941 
0.14276697208 0.73750617372 -0.66007744653 0.074840333577 0.87839241432 -0.47204416206 -0.05284540087 0.99855373298 0.0098896890546 
-0.1621320289 0.87180864884 0.46223682784 -0.2159901358 0.73352575794 0.64442860246 -0.25490698127 0.66032518385 0.70639442415 
-0.2951713242 0.61995621892 0.72699943328 -0.34019567118 0.59113813264 0.73131567292 -0.38945327875 0.56366497413 0.72842840459 
-0.44092684336 0.53151546474 0.72323912335 -0.49190189498 0.49110099777 0.71892442976 -0.539493328 0.43737780648 0.71947731266 
-0.58033642095 0.36217868407 0.72940814317 -0.60860968686 0.2481086173 0.75368187127 -0.60839986149 0.060279966794 0.79133806565 
-0.53203359159 -0.25436267237 0.80761369994 -0.30836185085 -0.6554035773 0.68946292127 -0.029243279328 -0.90307418514 0.42848786068 
0.14679918758 -0.96901705381 0.19863521325 0.22609468605 -0.97316174275 0.042865083535 0.24955714598 -0.96607484662 -0.066487755403 
0.24118638366 -0.95861893921 -0.15125758734 0.21391165757 -0.9513431364 -0.22178376762 0.17632341718 -0.94311946566 -0.28184344245 
0.13563096076 -0.9333918155 -0.33224081815 0.097725406774 -0.92305949275 -0.37203617796 0.067489290574 -0.91388403538 -0.40032632382 
0.048855687858 -0.90753438466 -0.41712643458 0.048855687858 -0.90753438466 -0.41712643458 
FrenetBinormal 3 128 double
0.30760037843 -0.92017026812 0.24221619445 0.30760037843 -0.92017026812 0.24221619445 0.30863597535 -0.91862490237 0.24672276639 
0.31001578998 -0.91600815309 0.254596295 0.31126007779 -0.91206450246 0.26693727228 0.3114741331 -0.90633943002 0.28553931779 
0.3090379347 -0.89801864975 0.31314223542 0.30104294452 -0.88546693334 0.35400770543 0.28214447441 -0.86507597734 0.41477469666 
0.2420723669 -0.82813639236 0.50556016935 0.16078619089 -0.75265175408 0.63848503342 0.005761800853 -0.58829066458 0.80862902225 
-0.22995890683 -0.27960067184 0.93217078128 -0.44657487254 0.082740310086 0.89091241113 -0.56479292907 0.33507814473 0.75414294679 
-0.61780510826 0.47192687141 0.62896889927 -0.64337673863 0.54311727232 0.53952757177 -0.65751747492 0.58005763695 0.48083667496 
-0.66542414739 0.59739577132 0.4475812736 -0.6672659135 0.60059439246 0.44050264066 -0.65752760156 0.58730015328 0.47194913195 
-0.60901870059 0.53345525301 0.5869597221 -0.334495483 0.26970055505 0.90298083172 0.45267196399 -0.42722005131 0.7826692282 
0.67286945097 -0.60281618075 0.42878823931 0.71274706823 -0.62747865308 0.31346795156 0.72238460792 -0.63121097196 0.28237065556 