# vtk DataFile Version 4.2
vtk output
ASCII
DATASET POLYDATA
POINTS 128 float
0 0 0 -0.325762 0.0728549 0.0340421 -0.965502 0.210071 0.119983 
-1.49841 0.309914 0.236189 -1.93676 0.373393 0.374413 -2.39974 0.426454 0.531071 
-2.88192 0.463706 0.704401 -3.35224 0.473534 0.892414 -3.81194 0.453514 1.08983 
-4.26984 0.403541 1.29061 -4.72553 0.321655 1.4897 -5.1763 0.205761 1.68207 
-5.62207 0.0559681 1.86128 -6.06344 -0.126753 2.02026 -6.50017 -0.3406 2.15106 
-6.93157 -0.583187 2.24524 -7.35588 -0.850395 2.29339 -7.7704 -1.13736 2.28625 
-8.16892 -1.43837 2.21766 -8.54385 -1.74771 2.0838 -8.88701 -2.06143 1.88833 
-9.19046 -2.37678 1.63838 -9.44939 -2.69426 1.34469 -9.6606 -3.01583 1.01936 
-9.82318 -3.34442 0.673879 -9.93748 -3.68309 0.319102 -10.0059 -4.033 -0.0366035 
-10.032 -4.39432 -0.386281 -10.0201 -4.76632 -0.725349 -9.97504 -5.14788 -1.05052 
-9.90182 -5.53789 -1.36018 -9.80529 -5.93529 -1.65354 -9.68961 -6.33952 -1.93003 
-9.5585 -6.7503 -2.18918 -9.41493 -7.16812 -2.43008 -9.2615 -7.59386 -2.65135 
-9.10087 -8.02795 -2.84875 -8.93568 -8.47102 -3.01626 -8.76755 -8.92782 -3.14526 
-8.59846 -9.40349 -3.22252 -8.4398 -9.88256 -3.20143 -8.30806 -10.3357 -3.02175 
-8.21436 -10.7167 -2.69191 -8.16475 -10.9752 -2.26242 -8.14748 -11.1266 -1.77894 
-8.14104 -11.2237 -1.28159 -8.13544 -11.2948 -0.784585 -8.12812 -11.3522 -0.285744 
-8.11641 -11.4076 0.214373 -8.09753 -11.473 0.713191 -8.07003 -11.5589 1.20818 
-8.03347 -11.6753 1.69667 -7.98877 -11.8316 2.17333 -7.93796 -12.0363 2.63085 
-7.88472 -12.2925 3.06161 -7.83387 -12.599 3.45811 -7.78934 -12.9496 3.81731 
-7.75415 -13.3348 4.13989 -7.72962 -13.7463 4.42891 -7.71555 -14.1768 4.68935 
-7.71104 -14.6209 4.92604 -7.71452 -15.0746 5.14369 -7.72412 -15.5348 5.34661 
-7.73767 -15.9996 5.53876 -7.75298 -16.4671 5.72384 -7.7678 -16.9361 5.90527 
-7.77997 -17.4054 6.08615 -7.78743 -17.8739 6.26923 -7.78828 -18.3407 6.45676 
-7.7808 -18.805 6.65045 -7.76337 -19.2659 6.85139 -7.73448 -19.7228 7.06 
-7.69251 -20.1752 7.27629 -7.63566 -20.6223 7.49983 -7.56196 -21.0637 7.72994 
-7.46921 -21.4985 7.96572 -7.35496 -21.9255 8.20612 -7.21646 -22.3434 8.45001 
-7.05099 -22.7501 8.69608 -6.85594 -23.1431 8.94281 -6.62915 -23.5193 9.18866 
-6.36913 -23.8752 9.43207 -6.0754 -24.2068 9.67148 -5.74889 -24.5104 9.90538 
-5.39147 -24.7829 10.1325 -5.0063 -25.0218 10.352 -4.59699 -25.2252 10.5633 
-4.16763 -25.3925 10.7661 -3.72227 -25.5239 10.9607 -3.26484 -25.6202 11.1476 
-2.79889 -25.6826 11.3274 -2.32745 -25.713 11.5011 -1.85316 -25.7131 11.6695 
-1.37815 -25.6849 11.8334 -0.904232 -25.6306 11.9936 -0.432694 -25.5526 12.151 
0.0354492 -25.4533 12.3064 0.499635 -25.3354 12.4607 0.959586 -25.202 12.6148 
1.41549 -25.0563 12.7699 1.86775 -24.9019 12.9271 2.31716 -24.743 13.0879 
2.76458 -24.5841 13.2543 3.21099 -24.4305 13.4281 3.65716 -24.2877 13.6118 
4.10331 -24.1622 13.8077 4.54896 -24.0603 14.0184 4.99216 -23.9884 14.246 
5.42999 -23.9524 14.4922 5.85776 -23.957 14.7579 6.27026 -24.0059 15.043 
6.66174 -24.0996 15.3458 7.02696 -24.2372 15.6643 7.3623 -24.4156 15.9952 
7.66501 -24.6313 16.3351 7.93399 -24.8807 16.6803 8.16845 -25.1605 17.0271 
8.36757 -25.4694 17.3714 8.53101 -25.8055 17.7093 8.65998 -26.1649 18.037 
8.75418 -26.5459 18.35 8.80724 -26.9563 18.6413 8.81668 -27.396 18.9043 
8.79761 -27.8315 19.136 8.75467 -28.2532 19.3335 8.63801 -28.7701 19.4919 
8.44011 -29.3894 19.6022 8.32905 -29.7044 19.6439 
LINES 1 129
128 0 1 2 3 4 5 6 7 8 9 10 11 12 13 14 15 16 17 18 19 20 21 22 23 24 25 26 27 28 29 30 31 32 33 34 35 36 37 38 39 40 41 42 43 44 45 46 47 48 49 50 51 52 53 54 55 56 57 58 59 60 61 62 63 64 65 66 67 68 69 70 71 72 73 74 75 76 77 78 79 80 81 82 83 84 85 86 87 88 89 90 91 92 93 94 95 96 97 98 99 100 101 102 103 104 105 106 107 108 109 110 111 112 113 114 115 116 117 118 119 120 121 122 123 124 125 126 127 

CELL_DATA 1
FIELD FieldData 2
Length 1 1 double
59.655402937 
Tortuosity 1 1 double
0.6311183881 
POINT_DATA 128
SCALARS MaximumInscribedSphereRadius float
LOOKUP_TABLE default
1.24 1.40605 1.5721 1.66797 1.75786 1.64119 1.52156 1.43919 1.35893 
1.40731 1.46478 1.48464 1.5011 1.44575 1.38249 1.25853 1.12667 1.09238 
1.07281 1.23413 1.42636 1.32818 1.17443 1.06135 0.956969 0.992711 1.06166 
1.12177 1.17956 1.22777 1.27322 1.26695 1.24435 1.21441 1.18194 1.25044 
1.35689 1.53488 1.74212 1.81028 1.81733 1.6265 1.34388 1.11138 0.901284 
0.93918 1.10061 1.27463 1.45533 1.61233 1.75574 1.76433 1.69 1.70624 
1.78208 1.97157 2.24063 2.27333 2.12967 1.94369 1.724 1.60339 1.56724 
1.56066 1.58105 1.62531 1.69287 1.76689 1.84766 1.92866 2.0099 2.05392 
2.0535 1.9855 1.8312 1.68859 1.56192 1.45349 1.37174 1.34427 1.40189 
1.48931 1.6268 1.69689 1.64568 1.5635 1.42152 1.38375 1.56233 1.73471 
1.89322 1.9981 1.97334 1.94432 1.90415 1.87256 1.86541 1.86389 1.87992 
1.91032 1.98996 2.0699 2.15101 2.2326 2.3162 2.37901 2.34425 2.2906 
2.13736 2.00359 1.98608 1.97717 2.02696 2.07477 2.10691 2.13428 2.11684 
2.09463 2.01769 1.94642 1.95806 1.9745 2.08004 2.1873 2.40597 2.62606 
2.86303 3.1 
TEXTURE_COORDINATES TCoords 2 float
0 0 0.00787402 0 0.015748 0 0.023622 0 0.0314961 
0 0.0393701 0 0.0472441 0 0.0551181 0 0.0629921 0 
0.0708661 0 0.0787402 0 0.0866142 0 0.0944882 0 0.102362 
0 0.110236 0 0.11811 0 0.125984 0 0.133858 0 
0.141732 0 0.149606 0 0.15748 0 0.165354 0 0.173228 
0 0.181102 0 0.188976 0 0.19685 0 0.204724 0 
0.212598 0 0.220472 0 0.228346 0 0.23622 0 0.244094 
0 0.251969 0 0.259843 0 0.267717 0 0.275591 0 
0.283465 0 0.291339 0 0.299213 0 0.307087 0 0.314961 
0 0.322835 0 0.330709 0 0.338583 0 0.346457 0 
0.354331 0 0.362205 0 0.370079 0 0.377953 0 0.385827 
0 0.393701 0 0.401575 0 0.409449 0 0.417323 0 
0.425197 0 0.433071 0 0.440945 0 0.448819 0 0.456693 
0 0.464567 0 0.472441 0 0.480315 0 0.488189 0 
0.496063 0 0.503937 0 0.511811 0 0.519685 0 0.527559 
0 0.535433 0 0.543307 0 0.551181 0 0.559055 0 
0.566929 0 0.574803 0 0.582677 0 0.590551 0 0.598425 
0 0.606299 0 0.614173 0 0.622047 0 0.629921 0 
0.637795 0 0.645669 0 0.653543 0 0.661417 0 0.669291 
0 0.677165 0 0.685039 0 0.692913 0 0.700787 0 
0.708661 0 0.716535 0 0.724409 0 0.732283 0 0.740157 
0 0.748031 0 0.755906 0 0.76378 0 0.771654 0 
0.779528 0 0.787402 0 0.795276 0 0.80315 0 0.811024 
0 0.818898 0 0.826772 0 0.834646 0 0.84252 0 
0.850394 0 0.858268 0 0.866142 0 0.874016 0 0.88189 
0 0.889764 0 0.897638 0 0.905512 0 0.913386 0 
0.92126 0 0.929134 0 0.937008 0 0.944882 0 0.952756 
0 0.96063 0 0.968504 0 0.976378 0 0.984252 0 
0.992126 0 1 0 
FIELD FieldData 7
Curvature 1 128 double
0 0.019873412394 0.03676608931 0.052064451535 0.06543921564 0.076902686974 0.086816614288 0.095837040448 0.10480322732 
0.11457906881 0.12588381711 0.13914663086 0.15441632485 0.17132448442 0.18906470772 0.20643896124 0.22193920194 0.23397711362 
0.24119477855 0.24282646819 0.23889467529 0.23021382315 0.21807876747 0.2039771266 0.18917064384 0.1746821722 0.16116756257 
0.14913576564 0.13906511421 0.13160251931 0.12763774673 0.1283235187 0.13496700364 0.14889973071 0.17142315358 0.20385097546 
0.24720231455 0.30110064818 0.36146619291 0.41769802797 0.45282025092 0.45112442833 0.40960541129 0.34072144008 0.26237305083 
0.18758897001 0.12196983164 0.066261122151 0.020941538743 0.027042998995 0.061333446002 0.091618553082 0.11650584011 0.13508476033 
0.14661217719 0.15085052344 0.14827701541 0.13997205022 0.12742192859 0.11217109208 0.095544252111 0.078614409256 0.062186728597 
0.046905570078 0.033578544585 0.023822191504 0.020761497903 0.025207167661 0.033326663303 0.042475747981 0.051800921383 0.061118341457 
0.070454980193 0.079898904908 0.089517418764 0.099341341684 0.1092894713 0.1192280016 0.12887216604 0.13793018629 0.14602639281 
0.15275564495 0.15779491063 0.16087566764 0.16183420534 0.16068746461 0.15752316045 0.15256279858 0.14608246174 0.1383403807 
0.12959930493 0.12000254176 0.10973125293 0.098773120293 0.087228568291 0.075092645276 0.062412919159 0.049400559467 0.036657538389 
0.026294618796 0.023833704188 0.032676815166 0.047660470672 0.065173491203 0.083810613637 0.10286525724 0.12170409048 0.13971169626 
0.15630645756 0.17081012893 0.18285604636 0.19219711544 0.19885236057 0.20311526415 0.20547723587 0.20636935763 0.20603126033 
0.20446226904 0.20117973098 0.19532144965 0.18582319564 0.17168710655 0.15232791144 0.12776839708 0.098670721766 0.066162381611 
0.03153714952 0 
Torsion 1 128 double
0 0 -0.08654936526 -0.12057272572 -0.15695671572 -0.19407800082 -0.22952460884 -0.25958189704 -0.27972930877 
-0.28621362002 -0.27738135969 -0.25469290932 -0.22178020802 -0.18280908082 -0.14116781093 -0.099088202068 -0.057794406543 -0.017737163186 
0.020939410774 0.058184953508 0.093824580537 0.12743047234 0.15838199384 0.18596317946 0.20997214925 0.23089155151 0.25022252798 
0.27017505816 0.29241307552 0.31618088379 0.3364360732 0.34327328921 0.32766910983 0.28901871376 0.23607965524 0.18046012448 
0.13028098916 0.089337460044 0.057915924051 0.034948520458 0.019003398597 0.0084364061167 0.0022923110277 0.00056685337094 0.0049953020321 
0.021479258888 0.070454403817 0.26612643007 2.5683663496 1.295150059 0.17536376479 0.035240700154 -0.0072032572847 -0.02500447848 
-0.033317731262 -0.036626245229 -0.036251070547 -0.03255289649 -0.024855842827 -0.011781921024 0.0093215180647 0.044582873512 0.10662985793 
0.22609672472 0.47601292666 0.94546836187 1.1684150571 0.6981478271 0.32457070812 0.1428719765 0.052407089044 0.0045218473047 
-0.021316531655 -0.034236610794 -0.038501901333 -0.037227586227 -0.03224158493 -0.025029794446 -0.016635638992 -0.0077133183881 0.00089101225588 
0.0093405751452 0.01740781672 0.024677884569 0.031397055301 0.03762625009 0.043288451803 0.0483762825 0.053162267012 0.057571807603 
0.061962561387 0.067207891827 0.073726859837 0.083567805372 0.099842398642 0.12828884983 0.18218665962 0.29377249982 0.55239356493 
1.1264461339 1.4384723652 0.7952635025 0.38076311395 0.20138247377 0.11624053666 0.070464455183 0.043730411901 0.027944886883 
0.018648939421 0.014142038846 0.013702844561 0.016260252097 0.021455768168 0.028943616769 0.037497487388 0.045808468144 0.052972934691 
0.057685396737 0.059121723176 0.057236551261 0.052587960996 0.046166949657 0.038611846254 0.030519480016 0.022647301079 0.015496953213 
0 0 
Abscissas 1 128 double
0 0.5030644005 1.006128801 1.5091962603 2.0122639798 2.5153289755 3.0183939322 3.5214639683 4.0245342939 
4.52759789 5.0306610098 5.5337287119 6.0367968282 6.539860671 7.042924043 7.5459922938 8.0490611806 8.5521281188 
9.0551947633 9.5582608784 10.061326903 10.564391013 11.067454757 11.570521944 12.073589865 12.576657657 13.079725418 
13.58279137 14.085856847 14.588919716 15.091981834 15.595050158 16.098120443 16.601187293 17.104252958 17.607315924 
18.110377876 18.613443326 19.116510206 19.619580809 20.122653048 20.625716376 21.12877557 21.631835428 22.134895583 
22.637961307 23.141029804 23.644097393 24.147164501 24.65023077 25.15329656 25.656357674 26.159415912 26.662484522 
27.165559957 27.668634596 28.171708677 28.674786412 29.177866875 29.680916739 30.183942222 30.687009858 31.19011343 
31.693180653 32.196214753 32.69928495 33.202390352 33.705475708 34.208540163 34.711587661 35.214616246 35.717678309 
36.220780335 36.723866026 37.226930863 37.729982782 38.233017049 38.736069406 39.239148246 39.742215638 40.245265085 
40.748330786 41.251423791 41.754505301 42.257566128 42.760621641 43.263666894 43.766727362 44.269819422 44.772901905 
45.27596297 45.779026081 46.28209414 46.785160094 47.288220529 47.791284129 48.294356763 48.797428188 49.300495845 
49.803562627 50.306626413 50.809689632 51.312750709 51.815810614 52.318865596 52.821924572 53.325002287 53.828078235 
54.331144865 54.834211369 55.337277118 55.840343514 56.343414316 56.846484582 57.349550597 57.852616331 58.355679413 
58.858743755 59.361822535 59.864898993 60.367941469 60.870985622 61.374060824 61.877136522 62.380244365 62.883348292 
63.386405512 63.889462731 
ParallelTransportNormals 3 128 double
0.12542266075 0 0.99210339994 0.18744454112 -0.011888403415 0.97992998052 0.2494664215 -0.023776806831 0.96775656111 
0.28907933817 -0.029238034488 0.95608604075 0.3267864342 -0.034152648547 0.94445829058 0.3549049399 -0.035329447677 0.93373456091 
0.38288657757 -0.036452893042 0.92302373528 0.39406607001 -0.035723760378 0.9183193656 0.40428818638 -0.034889068938 0.91395724014 
0.39830884227 -0.03633677836 0.91649683962 0.39118281299 -0.037946028481 0.9195249201 0.36399217961 -0.048208747041 0.92956957742 
0.33498768603 -0.059253747772 0.94024854028 0.28224069937 -0.086824475316 0.95324607654 0.22687836195 -0.11621559182 0.96649901491 
0.14833794585 -0.16767623132 0.96967344994 0.066775794875 -0.22201408287 0.97153394669 -0.02123963324 -0.29114050006 0.94929625353 
-0.11022801637 -0.36249657651 0.9234252971 -0.17922779733 -0.42903548435 0.87922756887 -0.24481153198 -0.49475113946 0.83189780067 
-0.28130145415 -0.54227515449 0.78878550042 -0.3122228062 -0.58631728059 0.74648042563 -0.32414549498 -0.61082932028 0.72174627057 
-0.33201311852 -0.63117286802 0.70076244388 -0.33380071059 -0.63753846532 0.69433704112 -0.33414766393 -0.64059204406 0.69136119772 
-0.33473699898 -0.63533928177 0.69584556027 -0.33538978293 -0.62791214668 0.7022828006 -0.33787051403 -0.61578208276 0.71159895674 
-0.34087783025 -0.60229722453 0.72174445539 -0.34606063819 -0.58452595289 0.73351558798 -0.35193071824 -0.56540053568 0.74580028396 
-0.36099130701 -0.53909041554 0.7602409872 -0.3711534103 -0.51029979614 0.77542604611 -0.38779927234 -0.46476138528 0.7939648407 
-0.40688178772 -0.41292900769 0.81376399853 -0.44235725063 -0.31268332089 0.83143824931 -0.48453348526 -0.19264823789 0.84824392432 
-0.54971951256 0.018635469575 0.79204283706 -0.62501557955 0.27001198572 0.70376404812 -0.67117226536 0.45069716324 0.53812558962 
-0.70381185541 0.59859023759 0.33660174099 -0.71560979871 0.65845759491 0.21932620007 -0.7180932012 0.67898453245 0.13970288061 
-0.71902799423 0.68665322418 0.10687981944 -0.71919139234 0.68791695351 0.097368950232 -0.71851787476 0.68563397512 0.11333843376 
-0.71739944735 0.68146554387 0.14285343827 -0.71428696444 0.67081731157 0.19115227729 -0.71003219944 0.65645716621 0.25021131712 
-0.70351838265 0.63045944724 0.31897790685 -0.69561513887 0.59730405321 0.39371511298 -0.68781709317 0.55554084891 0.46143751987 
-0.68008826872 0.50811363051 0.52454412781 -0.67460839381 0.46379952366 0.571990559 -0.6707033154 0.42166533105 0.60847116329 
-0.668460848 0.38756811714 0.6340700819 -0.66745891424 0.35946758086 0.65154978512 -0.66705648852 0.33759664312 0.66390974127 
-0.66713178943 0.3206898507 0.67218995324 -0.66730387398 0.30763718068 0.67821485627 -0.66755846756 0.29787018931 0.68231708545 
-0.66775725491 0.29051948059 0.685328217 -0.66790518692 0.28537069142 0.68734504882 -0.66799271585 0.28173386386 0.68877255328 
-0.66802133209 0.27957169175 0.68962527145 -0.66802399518 0.27783556571 0.69032591738 -0.6679995985 0.27654365207 0.69086800681 
-0.66788324996 0.27431246368 0.69186350457 -0.66766434956 0.27103372303 0.69336467857 -0.66707191852 0.26567318277 0.695972181 
-0.66603357299 0.2578274257 0.69990039941 -0.66407510414 0.2472077156 0.70548269768 -0.66094199461 0.23304674317 0.71317661453 
-0.65608179703 0.21598023289 0.72282349794 -0.64886154647 0.1949433267 0.73513909568 -0.63902893924 0.17164306368 0.74927388611 
-0.62537210457 0.1450294739 0.76607179169 -0.60872204588 0.11776221155 0.78393372819 -0.58738004375 0.089470303301 0.80346355619 
-0.56371573241 0.06245750765 0.822950633 -0.53615051495 0.037593305357 0.84236589832 -0.50786296543 0.015265667156 0.86079729708 
-0.47827565559 -0.0024976917163 0.87745833179 -0.44958528445 -0.017649052486 0.89274662552 -0.42262660881 -0.027757498557 0.90538460503 
-0.39752163672 -0.035949235878 0.91672514615 -0.37626564693 -0.040161168565 0.92537171963 -0.35704567231 -0.043313514628 0.93301297079 
-0.34237978569 -0.044095814138 0.93840555193 -0.32944075575 -0.044471748146 0.9431052519 -0.32067708029 -0.043865133897 0.94612963937 
-0.31326510959 -0.043240324249 0.94867646339 -0.30939701701 -0.042567810189 0.94997121911 -0.30662840118 -0.042094668418 0.950897991 
-0.30699733929 -0.042190471209 0.95077465508 -0.30839632281 -0.042622335068 0.95029672395 -0.31300706135 -0.044102061297 0.9487131397 
-0.31878270223 -0.046015370328 0.94668463719 -0.32854619871 -0.049412980257 0.94313302865 -0.33978329042 -0.053258431552 0.93892249173 
-0.35658941795 -0.058796372465 0.93222172164 -0.3752222675 -0.064569575109 0.92451624613 -0.40152329038 -0.071330354245 0.9125932404 
-0.42974841067 -0.077749334836 0.89927035172 -0.46700333627 -0.082564251985 0.8793778007 -0.50565524485 -0.086232239547 0.85789540556 
-0.55167694664 -0.08384959227 0.82802577692 -0.59785990718 -0.079862953115 0.79696143468 -0.64500625724 -0.066293771068 0.75875965336 
-0.69117515418 -0.051460759924 0.72022031153 -0.73067097752 -0.027999586137 0.67937644368 -0.76890349206 -0.0039325574065 0.63883794885 
-0.79713078766 0.024932752859 0.60071796328 -0.82435388133 0.053983403621 0.5631111849 -0.842146456 0.084774597823 0.53032396537 
-0.85925912059 0.11555759305 0.49804835779 -0.86857531288 0.14624657132 0.47163936181 -0.87746851698 0.17696508136 0.44559752997 
-0.88017460864 0.20811555696 0.42492626355 -0.88262347342 0.23901114922 0.40467696623 -0.88031220019 0.2651899721 0.39223646086 
-0.87793242178 0.29139090846 0.37986921521 -0.87111594832 0.31902401133 0.37224659017 -0.86482691611 0.34451893549 0.36521378433 
-0.86482691611 0.34451893549 0.36521378433 -0.86482691611 0.34451893549 0.36521378433 
FrenetTangent 3 128 double
-0.96085848419 0.11253784419 0.253152537 -0.96085848419 0.11253784419 0.253152537 -0.96036741212 0.10034195792 0.26004985139 
-0.95945843177 0.080812416399 0.2700164274 -0.9580177881 0.054289187911 0.28152193831 -0.95596084088 0.021254284443 0.29272363433 
-0.95325842046 -0.017669717776 0.30163913025 -0.9499301398 -0.061736342752 0.30630271545 -0.94600238492 -0.11010392747 0.30488786935 
-0.94143863902 -0.16186879978 0.29579009553 -0.93605615057 -0.21609349478 0.27767334135 -0.92944026287 -0.27182283898 0.24950579546 
-0.92087299809 -0.32808369601 0.21060391687 -0.90929391913 -0.38387257281 0.16070599392 -0.89331727007 -0.43814001036 0.10008789293 
-0.87133204806 -0.48979373516 0.029707894875 -0.84170286242 -0.537743501 -0.048664345596 -0.80306108183 -0.5810002021 -0.13240719017 
-0.75462373676 -0.61882559188 -0.21816943587 -0.6964412011 -0.65088406504 -0.30219130909 -0.62947397007 -0.67733253106 -0.38076654708 
-0.55546044392 -0.69879876065 -0.45071497351 -0.47663207675 -0.71624696981 -0.50971770782 -0.39538166658 -0.73078460356 -0.55644155213 
-0.31399292042 -0.74347777184 -0.59046528154 -0.2344677516 -0.75523376318 -0.61208401091 -0.15844493114 -0.76676076772 -0.62207164289 
-0.087188939501 -0.77858911451 -0.62144756786 -0.021598958314 -0.7911293008 -0.61126746553 0.037765882765 -0.80472780891 -0.59244146687 
0.090653521857 -0.81970148618 -0.56557175718 0.13706773421 -0.83633456948 -0.53080780339 0.1772053642 -0.85481940732 -0.48773152428 
0.21136711475 -0.87513801142 -0.4352670488 0.23983627992 -0.89686417825 -0.37163584946 0.26273450854 -0.91885750528 -0.29440017495 
0.27985121313 -0.9388298267 -0.20070340057 0.29047829051 -0.95283217502 -0.087938666104 0.29334616186 -0.95495345354 0.044854552672 
0.28691258416 -0.9379423863 0.19479540299 0.27024463658 -0.89568328036 0.35315619446 0.24424924977 -0.82723721864 0.50598506705 
0.21222296552 -0.73941219806 0.63892958475 0.17880560414 -0.64461252876 0.7433056193 0.14811464978 -0.55544360413 0.81825696035 
0.1226045403 -0.48075803082 0.86823950757 0.10307646716 -0.42501620965 0.89929776129 0.089236925895 -0.38952347895 0.91668327704 
0.080214736801 -0.37380760893 0.92403109661 0.074894236844 -0.37647342841 0.9233951543 0.072085800954 -0.39556032318 0.91560672127 
0.070618908031 -0.42860960683 0.90072569341 0.069416899595 -0.47264981529 0.87851206375 0.06757482887 -0.52424444937 0.84888244169 
0.064451740175 -0.57970044868 0.81227665422 0.059734720801 -0.635428667 0.76984555093 0.05345461043 -0.68835523165 0.72340146508 
0.045948769572 -0.73622889805 0.67517088226 0.037769923078 -0.7777392553 0.62745126001 0.029587099555 -0.81244097945 0.58229224488 
0.022092385407 -0.84053737726 0.54130291329 0.015933298465 -0.86263126126 0.5055822753 0.011680396668 -0.87950988156 0.47573725582 
0.0098105165741 -0.89198148094 0.45196547592 0.010710326194 -0.90077916566 0.4341453485 0.014686745822 -0.9065147598 0.42191858191 
0.021975450641 -0.90966510766 0.41476074004 0.032760991534 -0.91057743125 0.41203817679 0.047195267165 -0.90948258169 0.41305452468 
0.065403004171 -0.90651014506 0.41708728578 0.087495074766 -0.90170191391 0.42341264784 0.11357441928 -0.89501706171 0.43132970051 
0.14372804452 -0.88633008442 0.44018317853 0.17801330612 -0.87542989065 0.44937041448 0.21643569437 -0.86201922779 0.45834314778 
0.25891852174 -0.84571420062 0.46661406962 0.30526540169 -0.82605948026 0.47374969087 0.35512271543 -0.80255372012 0.47936977721 
0.40794316058 -0.77469330872 0.48314868847 0.46296810703 -0.74202945512 0.48482246194 0.51923816951 -0.70422801036 0.48420515563 
0.5756174869 -0.66114764427 0.48119466046 0.6308586793 -0.61288652112 0.47580189047 0.6836952845 -0.55980966199 0.46816012251 
0.73293876946 -0.5025588074 0.45851434582 0.77757897236 -0.44200614434 0.44721528385 0.81685697315 -0.37918924445 0.43469552829 
0.8503056797 -0.31523697847 0.42143314828 0.87776057923 -0.25128329159 0.40791307028 0.89932819691 -0.18840634604 0.39460339964 
0.91534360782 -0.12758789798 0.38192591941 0.9263131484 -0.069700843408 0.37025091968 0.93286096156 -0.015500381951 0.35990299325 
0.93568583953 0.034350726682 0.35115813715 0.93552013615 0.079268803525 0.3442652054 0.93309610806 0.11874267052 0.3394581437 
0.92911796187 0.15229558562 0.33696567709 0.9242313068 0.17948172755 0.33702047564 0.91899212337 0.19987587789 0.33985748576 
0.91382617483 0.2130757976 0.34571726408 0.9089961199 0.2186967945 0.35482075206 0.90456360433 0.21637525006 0.36735056403 
0.90035395076 0.20579221429 0.38342186672 0.89593853172 0.18669139943 0.40303904123 0.89062650331 0.15892502292 0.42606017028 
0.88349068333 0.12250313655 0.4521473145 0.87342063726 0.077661294582 0.48073393237 0.85921570901 0.024930528203 0.51100570854 
0.83971304375 -0.034842076199 0.54191146314 0.81392997411 -0.10046570564 0.57221031032 0.7811982141 -0.17046753236 0.60055821591 
0.74125273495 -0.24322434517 0.62560874422 0.69425535641 -0.3170758135 0.64612106342 0.64074733304 -0.39047340579 0.66103961649 
0.58154608742 -0.46209768969 0.66952959112 0.51762795015 -0.53087559082 0.67099360078 0.45006179556 -0.59591834457 0.66507571508 
0.37999126639 -0.65645358579 0.65167118025 0.30867755507 -0.71173393084 0.63099364394 0.23758863079 -0.76099082041 0.60369248279 
0.16846113072 -0.80349421568 0.57097976567 0.10328809112 -0.83870205946 0.53470592449 0.044205153103 -0.86644349448 0.49731436266 
-0.0067190179374 -0.88703819444 0.46164715573 -0.047701338109 -0.90127339126 0.43061683264 -0.077393029456 -0.91022165525 0.40682534005 
-0.094927091735 -0.91494542124 0.39225466651 -0.094927091735 -0.91494542124 0.39225466651 
FrenetNormal 3 128 double
0.03375970229 -0.85940389339 0.51018156624 0.03375970229 -0.85940389339 0.51018156624 0.038790920481 -0.87576568863 0.48117535589 
0.04632576737 -0.89976918065 0.43390015537 0.055237262674 -0.92856440339 0.36703813639 0.064253660815 -0.958023393 0.27939693188 
0.072288893156 -0.98263468041 0.17089002539 0.078805766852 -0.99593324174 0.043664964356 0.084207172794 -0.99172892484 -0.096865327524 
0.090022788962 -0.9660553839 -0.24214229847 0.098725131602 -0.91878434159 -0.38221549163 0.11329094627 -0.85379260131 -0.50813714235 
0.13644271402 -0.77725072352 -0.61421877094 0.17022291012 -0.69546979201 -0.69810166113 0.21566431987 -0.61329202312 -0.75984327036 
0.27280445187 -0.53385783787 -0.80035838222 0.3406183172 -0.45888979915 -0.82060911171 0.41716434993 -0.38947031895 -0.82114966712 
0.49972159767 -0.32653610744 -0.80227956185 0.58506763121 -0.27116729927 -0.76430632781 0.66977013273 -0.22455016513 -0.70780307477 
0.75043035754 -0.18776183384 -0.633719001 0.8237908889 -0.16148119409 -0.54340812961 0.88676787928 -0.14579726242 -0.43861815574 
0.93647737735 -0.14016830539 -0.32150111646 0.97033654332 -0.14365724632 -0.19444687778 0.98606913172 -0.15518505194 -0.059877100233 
0.98152381399 -0.17379659601 0.080035903152 0.95424425637 -0.19870721599 0.2234576951 0.90135488586 -0.22853052641 0.36787656659 
0.82045589672 -0.26042521238 0.50895071499 0.71258620461 -0.28897236449 0.63930890309 0.58560963683 -0.30671304665 0.75032556952 
0.45341602793 -0.30671860525 0.83686175848 0.32982406132 -0.2847637821 0.90006981783 0.22262275718 -0.23915724287 0.94511529517 
0.13250003463 -0.1692858444 0.9766197027 0.056018744297 -0.074810170485 0.99562309067 -0.011438918517 0.043409206234 0.99899188783 
-0.072818448662 0.18140252867 0.98070923118 -0.12863704389 0.32992544645 0.93520142789 -0.17707455249 0.47496741723 0.86200380244 
-0.21578577254 0.60222544439 0.76860979339 -0.24422900813 0.70275541933 0.66819683641 -0.2644506955 0.77501000471 0.57395585392 
-0.28167334034 0.82200944608 0.49493494511 -0.30625694234 0.84663053144 0.43522801897 -0.37045250144 0.84134694646 0.3935737032 
-0.70716279796 0.63198100297 0.31705013651 -0.29605379052 -0.89263945549 -0.33992198462 -0.064030504381 -0.9179366369 -0.39152576562 
-0.02507347967 -0.90345751832 -0.42794372668 -0.024150167452 -0.88117450242 -0.47217397822 -0.037083471248 -0.85155908176 -0.52294545264 
-0.056183735964 -0.81478589571 -0.57703321564 -0.077862807739 -0.771839002 -0.63103243827 -0.099794982791 -0.72449299749 -0.68201969032 
-0.12003773107 -0.67505660171 -0.72793511223 -0.13689042105 -0.62600680655 -0.76770859757 -0.14793666038 -0.57969095428 -0.80129466617 
-0.15030569772 -0.53807356387 -0.82938835119 -0.13868331522 -0.5026656692 -0.85328433895 -0.10349400333 -0.47427785746 -0.87427084202 
-0.02468710592 -0.45206551339 -0.89164304427 0.14180011648 -0.42841439685 -0.8923865931 0.4697733308 -0.36623727287 -0.80323301577 
0.86741064153 -0.18893211087 -0.46032970406 0.99848316531 0.011565784712 -0.05382937126 0.9788807364 0.12445456987 0.16218373515 
0.94979647792 0.1847124871 0.25252316257 0.93302426192 0.22309501838 0.28230185874 0.9257778504 0.25290838735 0.28102085212 
0.92347136086 0.28001166188 0.26228632233 0.92258754074 0.30731534696 0.23321558095 0.92059990543 0.33650126077 0.1981482163 
0.91563880173 0.3687079672 0.16018745173 0.90652861132 0.40441951873 0.1210401988 0.89227882549 0.44393524313 0.082219203855 
0.87228552103 0.48698307979 0.044333393658 0.84600020157 0.53312124895 0.0080865849068 0.81313342356 0.58148500466 -0.026253092063 
0.7736146055 0.63094913652 -0.058511787643 0.72749539252 0.68043266505 -0.088101317843 0.67522656869 0.72861587878 -0.11483893988 
0.61750078408 0.77429788998 -0.13840360992 0.55521639977 0.81648535218 -0.15838692842 0.48946166608 0.8543918066 -0.1744761252 
0.42143925015 0.88747748061 -0.186474341 0.35235824664 0.91548184572 -0.19425924996 0.28330255466 0.93845420204 -0.19759396042 
0.21537872379 0.95652609519 -0.19664647099 0.14932361168 0.97017610329 -0.19094708063 0.085756141474 0.97990754392 -0.18007523306 
0.025008633102 0.98628965987 -0.16311736604 -0.033193293606 0.98991321655 -0.13773172825 -0.089786764591 0.99094524853 -0.099829110542 
-0.14713154929 0.98826796562 -0.040972372884 -0.21034685755 0.97595812047 0.057095942082 -0.2889901248 0.92784764814 0.23576142518 
-0.38466003311 0.7271303655 0.56861066688 -0.39003799806 0.14617246037 0.90912263854 -0.26334508458 -0.39404126468 0.88055712373 
-0.1788243471 -0.62829918371 0.75714066634 -0.14729463975 -0.73116344869 0.66611132733 -0.14767345205 -0.78507790687 0.6015357277 
-0.16858237681 -0.81738858187 0.5508683041 -0.20425076047 -0.83774254344 0.50642774189 -0.2509513625 -0.84986340107 0.46341732076 
-0.3056735228 -0.85514783607 0.41867156092 -0.36589099201 -0.85370027293 0.37056662823 -0.42881696775 -0.84566241707 0.31775947589 
-0.49184313196 -0.83106403999 0.25965919006 -0.55258678105 -0.81002211036 0.19624482192 -0.60880955654 -0.78298495592 0.12761458642 
-0.65870338746 -0.75044827861 0.054196203494 -0.70108558407 -0.71270499002 -0.023034778385 -0.73522541705 -0.669984364 -0.10278393902 
-0.76079083658 -0.62252321579 -0.18347247419 -0.77808019315 -0.57051219433 -0.26288219633 -0.7876613564 -0.51463366409 -0.33873555971 
-0.79054497421 -0.45613114564 -0.40863556102 -0.78787515814 -0.39711467372 -0.47069381885 -0.78116184988 -0.34029276489 -0.5234376739 
-0.77219997236 -0.28871547456 -0.56599520973 -0.76294921691 -0.24537465478 -0.5980800709 -0.75500314122 -0.2129890838 -0.62016603175 
-0.75009134394 -0.19331942374 -0.63244808178 -0.75009134394 -0.19331942374 -0.63244808178 
FrenetBinormal 3 128 double
0.27497500953 0.49875864068 0.82196627819 0.27497500953 0.49875864068 0.82196627819 0.2760248145 0.47219270442 0.8371644711 
0.27801697968 0.42881788081 0.85954742982 0.28133745305 0.36717956483 0.88658242972 0.28637447123 0.28590109105 0.91446718277 
0.29338149183 0.18470751453 0.93798210768 0.30236134115 0.065617086075 0.95093218338 0.31303137186 -0.065961085358 0.94744946855 
0.32494489752 -0.20133426657 0.92405374664 0.33771619945 -0.33036182462 0.8813675927 0.35114948277 -0.44401637149 0.82434428645 
0.36520721129 -0.53688211108 0.76051383394 0.37974824491 -0.60742375344 0.69773035927 0.39430084469 -0.65719572861 0.64235552319 
0.40787031402 -0.68927346238 0.59878535469 0.4189456449 -0.70728500576 0.56941414387 0.42551945197 -0.71466889943 0.5551410273 
0.42523092637 -0.71444317995 0.55565241104 0.41553040843 -0.70909677033 0.56966327772 0.3939168571 -0.70056967228 0.59500558315 
0.35821498253 -0.69023603634 0.62869407539 0.30690460209 -0.67890654894 0.66700484482 0.23940774006 -0.66685607253 0.70568187771 
0.1562644158 -0.65390645274 0.74026196945 0.058922543721 -0.6395190056 0.76651391071 -0.050624808868 -0.62289286779 0.78066740933 