# vtk DataFile Version 4.2
vtk output
ASCII
DATASET POLYDATA
POINTS 128 float
0 0 0 -0.305566 0.000192439 0.136818 -0.913826 0.00681378 0.391958 
-1.43857 0.0262594 0.572213 -1.88643 0.0512006 0.688714 -2.36354 0.0711822 0.80311 
-2.8651 0.081095 0.914217 -3.36289 0.076648 1.00806 -3.85601 0.0507815 1.08837 
-4.34971 -0.00432643 1.163 -4.84004 -0.0962378 1.23468 -5.32028 -0.231802 1.30463 
-5.78406 -0.414597 1.37422 -6.22556 -0.646082 1.4444 -6.64137 -0.921958 1.51317 
-7.02967 -1.2358 1.57713 -7.39289 -1.58014 1.63066 -7.73508 -1.9473 1.66704 
-8.06102 -2.33056 1.67775 -8.37538 -2.72328 1.65347 -8.68083 -3.11735 1.58404 
-8.97859 -3.50429 1.46012 -9.26583 -3.87706 1.28004 -9.53811 -4.23008 1.04614 
-9.79158 -4.56366 0.766456 -10.0228 -4.88083 0.45125 -10.2297 -5.18624 0.108932 
-10.4108 -5.48508 -0.253139 -10.5646 -5.78162 -0.629406 -10.6894 -6.07951 -1.01525 
-10.7835 -6.3811 -1.4069 -10.8446 -6.68804 -1.801 -10.8708 -7.00105 -2.1942 
-10.86 -7.32034 -2.58313 -10.8103 -7.6456 -2.96404 -10.7199 -7.97622 -3.33285 
-10.5868 -8.31141 -3.68417 -10.4088 -8.65021 -4.01174 -10.1853 -8.99077 -4.30811 
-9.91618 -9.33072 -4.56387 -9.5944 -9.6684 -4.75603 -9.21237 -10.0002 -4.85215 
-8.80083 -10.2959 -4.80675 -8.41425 -10.5112 -4.57319 -8.0979 -10.6323 -4.18486 
-7.88692 -10.6661 -3.72275 -7.77197 -10.6352 -3.23214 -7.71755 -10.5698 -2.73448 
-7.70493 -10.4857 -2.23875 -7.72664 -10.3887 -1.74587 -7.77548 -10.2851 -1.25589 
-7.84436 -10.1818 -0.768283 -7.92739 -10.0852 -0.281735 -8.01947 -10.0021 0.205654 
-8.11457 -9.9418 0.695927 -8.20572 -9.9157 1.19094 -8.28295 -9.94013 1.68815 
-8.33425 -10.0345 2.18106 -8.35214 -10.2074 2.65558 -8.33346 -10.4578 3.09213 
-8.28375 -10.7733 3.48283 -8.21571 -11.133 3.82999 -8.13953 -11.522 4.13984 
-8.06289 -11.9317 4.42164 -7.99125 -12.3559 4.68239 -7.92805 -12.791 4.92679 
-7.87551 -13.2344 5.15842 -7.83477 -13.6843 5.37977 -7.80596 -14.1392 5.59232 
-7.78829 -14.5985 5.79662 -7.78002 -15.0616 5.99272 -7.77851 -15.5283 6.18017 
-7.78046 -15.9987 6.35836 -7.78197 -16.4727 6.52647 -7.77868 -16.9503 6.68417 
-7.76576 -17.431 6.83162 -7.73842 -17.914 6.96958 -7.6919 -18.3978 7.09946 
-7.62157 -18.8804 7.2231 -7.52302 -19.359 7.34279 -7.39211 -19.8304 7.46102 
-7.22507 -20.2899 7.58042 -7.01878 -20.7324 7.70354 -6.77102 -21.1513 7.83286 
-6.4811 -21.5396 7.97051 -6.15049 -21.8897 8.11809 -5.78279 -22.1955 8.2767 
-5.3846 -22.4529 8.4467 -4.96316 -22.6605 8.62824 -4.52636 -22.8204 8.8212 
-4.08117 -22.9363 9.02553 -3.63296 -23.0131 9.24135 -3.18611 -23.0558 9.46875 
-2.74352 -23.0688 9.7078 -2.30734 -23.0559 9.95821 -1.87866 -23.0197 10.2191 
-1.45792 -22.9621 10.4888 -1.04455 -22.8838 10.7645 -0.63744 -22.7854 11.0432 
-0.234635 -22.6677 11.3205 0.165982 -22.5322 11.5928 0.566677 -22.3817 11.8571 
0.969602 -22.2201 12.1111 1.37663 -22.0526 12.3545 1.7893 -21.8848 12.588 
2.20845 -21.7235 12.8144 2.6345 -21.5754 13.0371 3.067 -21.4486 13.2606 
3.50473 -21.3513 13.4891 3.94479 -21.2926 13.7264 4.38272 -21.2822 13.9754 
4.81062 -21.3303 14.237 5.21876 -21.4459 14.5104 5.59394 -21.6329 14.7907 
5.92396 -21.8914 15.0717 6.20106 -22.2118 15.3458 6.42096 -22.5824 15.6068 
6.58722 -22.9899 15.8533 6.70522 -23.4221 16.0846 6.78138 -23.8702 16.2991 
6.82271 -24.3272 16.4996 6.83752 -24.7902 16.7033 6.83196 -25.2552 16.9174 
6.8041 -25.7106 17.1052 6.75685 -26.1535 17.2628 6.71778 -26.6211 17.5446 
6.70818 -27.0896 18.0059 6.71059 -27.3109 18.2641 
LINES 1 129
128 0 1 2 3 4 5 6 7 8 9 10 11 12 13 14 15 16 17 18 19 20 21 22 23 24 25 26 27 28 29 30 31 32 33 34 35 36 37 38 39 40 41 42 43 44 45 46 47 48 49 50 51 52 53 54 55 56 57 58 59 60 61 62 63 64 65 66 67 68 69 70 71 72 73 74 75 76 77 78 79 80 81 82 83 84 85 86 87 88 89 90 91 92 93 94 95 96 97 98 99 100 101 102 103 104 105 106 107 108 109 110 111 112 113 114 115 116 117 118 119 120 121 122 123 124 125 126 127 

CELL_DATA 1
FIELD FieldData 2
Length 1 1 double
58.437230809 
Tortuosity 1 1 double
0.74265310666 
POINT_DATA 128
SCALARS MaximumInscribedSphereRadius float
LOOKUP_TABLE default
0.93 0.93 0.93 0.954389 0.980992 1.06165 1.14324 1.18176 1.2178 
1.14403 1.06211 1.02086 0.983414 0.977215 0.974559 0.962536 0.949262 0.939977 
0.931312 0.93746 0.94625 0.986004 1.032 1.13847 1.25849 1.43657 1.62907 
1.7331 1.81276 1.84078 1.85312 1.85761 1.8595 1.836 1.80327 1.68475 
1.53235 1.40919 1.29852 1.26376 1.26395 1.42364 1.66177 1.7566 1.78168 
1.74738 1.68513 1.71635 1.79547 1.79485 1.75032 1.69881 1.64314 1.65827 
1.71854 1.75089 1.76412 1.71795 1.62838 1.57841 1.5588 1.57948 1.63299 
1.70123 1.78233 1.83137 1.85045 1.85105 1.83315 1.79002 1.71984 1.67802 
1.66883 1.77737 2.03104 2.20354 2.26868 2.2438 2.09116 1.99212 1.97478 
1.98874 2.05389 2.08117 2.04203 1.99778 1.94392 1.93759 2.02705 2.11769 
2.21089 2.30179 2.38729 2.41643 2.30231 2.17821 2.02643 1.93045 2.00356 
2.08126 2.17425 2.26682 2.35785 2.43578 2.46006 2.47435 2.44282 2.39406 
2.25605 2.11515 1.95726 1.80914 1.72668 1.66116 1.72547 1.80053 1.97069 
2.1348 2.23505 2.33308 2.40157 2.46667 2.47341 2.48 2.48 2.48 
2.48 2.48 
TEXTURE_COORDINATES TCoords 2 float
0 0 0.00787402 0 0.015748 0 0.023622 0 0.0314961 
0 0.0393701 0 0.0472441 0 0.0551181 0 0.0629921 0 
0.0708661 0 0.0787402 0 0.0866142 0 0.0944882 0 0.102362 
0 0.110236 0 0.11811 0 0.125984 0 0.133858 0 
0.141732 0 0.149606 0 0.15748 0 0.165354 0 0.173228 
0 0.181102 0 0.188976 0 0.19685 0 0.204724 0 
0.212598 0 0.220472 0 0.228346 0 0.23622 0 0.244094 
0 0.251969 0 0.259843 0 0.267717 0 0.275591 0 
0.283465 0 0.291339 0 0.299213 0 0.307087 0 0.314961 
0 0.322835 0 0.330709 0 0.338583 0 0.346457 0 
0.354331 0 0.362205 0 0.370079 0 0.377953 0 0.385827 
0 0.393701 0 0.401575 0 0.409449 0 0.417323 0 
0.425197 0 0.433071 0 0.440945 0 0.448819 0 0.456693 
0 0.464567 0 0.472441 0 0.480315 0 0.488189 0 
0.496063 0 0.503937 0 0.511811 0 0.519685 0 0.527559 
0 0.535433 0 0.543307 0 0.551181 0 0.559055 0 
0.566929 0 0.574803 0 0.582677 0 0.590551 0 0.598425 
0 0.606299 0 0.614173 0 0.622047 0 0.629921 0 
0.637795 0 0.645669 0 0.653543 0 0.661417 0 0.669291 
0 0.677165 0 0.685039 0 0.692913 0 0.700787 0 
0.708661 0 0.716535 0 0.724409 0 0.732283 0 0.740157 
0 0.748031 0 0.755906 0 0.76378 0 0.771654 0 
0.779528 0 0.787402 0 0.795276 0 0.80315 0 0.811024 
0 0.818898 0 0.826772 0 0.834646 0 0.84252 0 
0.850394 0 0.858268 0 0.866142 0 0.874016 0 0.88189 
0 0.889764 0 0.897638 0 0.905512 0 0.913386 0 
0.92126 0 0.929134 0 0.937008 0 0.944882 0 0.952756 
0 0.96063 0 0.968504 0 0.976378 0 0.984252 0 
0.992126 0 1 0 
FIELD FieldData 7
Curvature 1 128 double
0 0.014599885115 0.027589109531 0.040475382513 0.053476819535 0.06687100233 0.080810428978 0.095149016835 0.10936982641 
0.12263616811 0.13397658555 0.14253418652 0.14788577736 0.15023755167 0.15051629219 0.15013253563 0.150567998 0.15281164196 
0.15694248819 0.16210980484 0.16687618161 0.16981502899 0.16993264404 0.16697489989 0.16150506677 0.1546725444 0.14788483146 
0.14261094513 0.13998148458 0.14072835059 0.14518281219 0.15352470402 0.16595779533 0.18314172891 0.20638189122 0.23800765046 
0.28152817004 0.34194910053 0.42513570528 0.53488497981 0.66472425848 0.78515759596 0.84369098018 0.80241504288 0.6797724799 
0.52999311855 0.39409642877 0.28599489087 0.2042995062 0.14386717383 0.10184023934 0.080821999839 0.084576065795 0.10612449443 
0.13484814063 0.16430851659 0.19015597736 0.20873680526 0.21744282294 0.21545726365 0.20405586865 0.18602987626 0.16470291751 
0.14287295178 0.12249097376 0.10455671176 0.089286104856 0.076484842727 0.065713646655 0.056662281195 0.049399057945 0.044564997242 
0.043309442755 0.046512476881 0.054027298279 0.064897387455 0.078147864126 0.093046696689 0.10900106309 0.12549307966 0.14191378334 
0.15756153782 0.17160479695 0.18313814727 0.19136921946 0.19567782989 0.1958325796 0.19205234547 0.18492812748 0.1752191969 
0.16388568834 0.15157934608 0.13885890618 0.12604731231 0.11322640816 0.10041649318 0.087427895971 0.074169192429 0.060457943124 
0.045993858076 0.030686547809 0.014679971873 0.0081886792678 0.026021920559 0.047739626859 0.071851758391 0.098189159164 0.126590271 
0.15656547588 0.18699409891 0.21612309575 0.24134690224 0.25966799561 0.26836337308 0.26592342726 0.25276270605 0.23097480742 
0.20373980484 0.17424529884 0.14520843335 0.11851256429 0.095174145498 0.075359700218 0.05841343706 0.043150556281 0.028391955357 
0.013464951232 0 
Torsion 1 128 double
0 0 0.1162972338 0.14510777616 0.16118369781 0.1614942864 0.14672678888 0.12016488508 0.085627673109 
0.046092142011 0.0029335974038 -0.043564736446 -0.093433767557 -0.14574196315 -0.19684873111 -0.23927002172 -0.26280343049 -0.25984126377 
-0.23064334921 -0.1831887049 -0.12698141883 -0.068508081389 -0.010783771029 0.046244334213 0.10285800678 0.15795793972 0.208916958 
0.2503074236 0.276268317 0.28422015169 0.27684735132 0.26058746447 0.24228581712 0.22631668729 0.21439450929 0.20620690803 
0.20038323878 0.19503368809 0.18855964792 0.17969534534 0.16854502334 0.15695841465 0.14841418613 0.14577774824 0.15010673679 
0.16274742482 0.18811969619 0.23663475679 0.33061000195 0.51580160026 0.85548128146 1.1910398575 0.98390604909 0.56882408068 
0.31354266813 0.17718102859 0.098810805603 0.048672748571 0.012658181599 -0.016375321928 -0.041757145879 -0.065077489482 -0.086326407913 
-0.10331489795 -0.1123786387 -0.10818505358 -0.083935325894 -0.03382334274 0.047590571808 0.16517326833 0.31885144636 0.48416322121 
0.58654723882 0.56258382378 0.45749686106 0.35006166145 0.26974084423 0.21513161125 0.17853662892 0.15348116952 0.13577065451 
0.12319661286 0.11415156732 0.10775652316 0.1034095461 0.10030622171 0.098113622343 0.096057034151 0.0929622894 0.08789965441 
0.079776932678 0.06771771424 0.050998235925 0.029853937721 0.0047201844025 -0.023255479967 -0.053003878634 -0.08499501476 -0.12185373949 
-0.17687843715 -0.31398068059 -1.1437740396 -3.792660247 -0.49850538369 -0.22064837338 -0.14476352121 -0.10985866362 -0.088751306872 
-0.074065255005 -0.06344791762 -0.056009597945 -0.051568424173 -0.050272826411 -0.05255191683 -0.058983407721 -0.070418746554 -0.08784846751 
-0.11219639939 -0.14418504994 -0.1833269381 -0.22560843311 -0.26262425542 -0.28216907015 -0.27091051387 -0.2287222209 -0.16822188938 
0 0 
Abscissas 1 128 double
0 0.50293039353 1.0058607871 1.5087901922 2.0117195078 2.5146515684 3.0175836765 3.5205159237 4.0234481788 
4.5263760303 5.0293035551 5.5322339738 6.0351646638 6.5380948763 7.0410250347 7.543955667 8.0468863626 8.5498188004 
9.0527515089 9.5556795996 10.058606867 10.56153885 11.064471785 11.567403574 12.070335105 12.57326224 13.076188281 
13.579122359 14.082058649 14.584983718 15.087905381 15.590834454 16.093765994 16.596697445 17.099628864 17.602556894 
18.105483588 18.608418267 19.111356358 19.614286322 20.117212542 20.620151782 21.123097426 21.626025036 22.128943868 
22.63187013 23.134799888 23.637730863 24.140662463 24.643591576 25.146519322 25.64944829 26.152377982 26.655308391 
27.158239256 27.661169355 28.164098929 28.667026479 29.16995255 29.672890365 30.175837188 30.678772991 31.181699814 
31.68463379 32.187574006 32.690491644 33.193388194 33.696317825 34.199280578 34.702215526 35.205120657 35.708053904 
36.211019481 36.713961187 37.216873471 37.719792954 38.222721958 38.725646203 39.228563694 39.73148785 40.234422161 
40.737355808 41.240288368 41.743216718 42.246137682 42.749064196 43.252001142 43.754935948 44.257866444 44.760797832 
45.263731152 45.766663635 46.269594157 46.772524359 47.275453748 47.778382429 48.28130915 48.784237492 49.287170745 
49.790105618 50.293045888 50.795978757 51.298884404 51.801799224 52.30475158 52.807699892 53.31062968 53.813558206 
54.316480197 54.819404005 55.32233851 55.825272763 56.328205317 56.831138091 57.334072547 57.837008477 58.339957449 
58.842902749 59.345809208 59.848718162 60.351660265 60.854600973 61.35751765 61.860434928 62.363378865 62.866320994 
63.369240371 63.872159747 
ParallelTransportNormals 3 128 double
0.39251403136 0 0.91974601667 0.34217940033 0.0014075278267 0.93797904535 0.2918447693 0.0028150556534 0.95621207403 
0.25745525525 0.0040872260627 0.96572041093 0.22451257057 0.0053471143992 0.974437086 0.19862944857 0.0053183685136 0.97969495771 
0.17286837891 0.0052673435122 0.98489303039 0.15965143641 0.0041521552929 0.98708197814 0.14715607685 0.0029757526101 0.98909783029 
0.14603036554 0.0028289862774 0.98927601911 0.14574831469 0.0027586219099 0.98931784806 0.15042570456 0.0049670407714 0.98859205171 
0.15556807186 0.007389109277 0.98779428586 0.15321903583 0.0055081019322 0.98816872145 0.15002028693 0.0031390179546 0.98867611406 
0.1305416575 -0.016400184674 0.99082692105 0.10888838543 -0.038232946648 0.99319725292 0.067517185842 -0.087471934425 0.99144578199 
0.0230818912 -0.14096975118 0.98905379771 -0.038381652864 -0.21948861579 0.96895222396 -0.10288248268 -0.30247042139 0.94569183556 
-0.16505480736 -0.38335330356 0.90189342761 -0.22675772299 -0.46381305861 0.85395470993 -0.27001010501 -0.52234985353 0.8046879881 
-0.30912737917 -0.57597330518 0.75512363584 -0.33226577053 -0.61144863408 0.71635992329 -0.3514300816 -0.64241037478 0.68028241916 
-0.36183974937 -0.66334424938 0.65432912162 -0.3698386219 -0.68151671713 0.63116376054 -0.37372382552 -0.69482215563 0.61415980899 
-0.37636056611 -0.70665049272 0.5990257921 -0.37695573395 -0.71587398353 0.58759130654 -0.37687127442 -0.72423033661 0.57738837284 
-0.37590446516 -0.73021715451 0.57045719944 -0.37461708413 -0.7353430824 0.56471470885 -0.37429850078 -0.73670292631 0.56317794478 
-0.37436245051 -0.73657571909 0.56330182619 -0.3810836052 -0.72792608899 0.56973550444 -0.39064870477 -0.71563569657 0.57886471551 
-0.42860988875 -0.68067265693 0.59040992697 -0.47965081777 -0.63526618992 0.60306799147 -0.57532830841 -0.57306860103 0.56614146961 
-0.69295910149 -0.50261274663 0.50482809131 -0.77425291556 -0.46839782061 0.40657889749 -0.83786058917 -0.45182228472 0.29035209411 
-0.86574952453 -0.45139479154 0.20486294005 -0.87683231508 -0.45856516875 0.13383626175 -0.87983193563 -0.46648592995 0.080189357421 
-0.8786891319 -0.47479124434 0.035449156471 -0.87555354291 -0.48206629592 -0.0016742508457 -0.8713209127 -0.48877418114 -0.03460456379 
-0.86665002928 -0.49407290436 -0.064121543882 -0.86171947097 -0.49853666737 -0.091616047387 -0.85704506403 -0.50091415688 -0.11816267588 
-0.85253401027 -0.50196118547 -0.14410482433 -0.84909351942 -0.49926392062 -0.17067690744 -0.84638592877 -0.49400333753 -0.1976802396 
-0.8457192958 -0.48324610282 -0.22461462722 -0.84654360907 -0.46847349228 -0.25149864995 -0.84915928228 -0.44912838579 -0.2762801547 
-0.85314888886 -0.42627627625 -0.29944907478 -0.85763949338 -0.40107414549 -0.32044094145 -0.86253832084 -0.37395717137 -0.33965890234 
-0.86701603478 -0.34596432016 -0.35736631014 -0.87112647693 -0.31720757768 -0.37375629762 -0.87441928799 -0.28887386394 -0.38882373733 
-0.87694840754 -0.26093527148 -0.40265587851 -0.87870233814 -0.23490001923 -0.41493930428 -0.87968012127 -0.21077046066 -0.42567209968 
-0.88024474725 -0.19032366471 -0.43441022024 -0.88036632855 -0.17382604006 -0.44100937245 -0.88043804686 -0.16277297779 -0.44532590183 
-0.88045242573 -0.15798083416 -0.4470175525 -0.88027791775 -0.16054548266 -0.44635385151 -0.87987060994 -0.1721772537 -0.44278721922 
-0.87821535043 -0.19217790355 -0.43713879522 -0.87490955307 -0.22324721198 -0.42873699861 -0.86831079186 -0.26272649172 -0.41840315394 
-0.8570382687 -0.3141421928 -0.40532711922 -0.83966482048 -0.37285199329 -0.39004332285 -0.81299644735 -0.44267455224 -0.37139594168 
-0.77740165958 -0.5168199169 -0.34994379907 -0.72721299697 -0.59803267513 -0.32390612696 -0.66763204043 -0.67787363749 -0.29493317815 
-0.5915803211 -0.75530895488 -0.26081279179 -0.51097156732 -0.82519562959 -0.2251564335 -0.42179670114 -0.88089269863 -0.18661282291 
-0.33513328767 -0.9277048176 -0.1487063888 -0.2535308194 -0.95661246032 -0.11208395866 -0.17762409297 -0.97966495105 -0.077199019504 
-0.11406439722 -0.99002484738 -0.046080552748 -0.055439506795 -0.99758277373 -0.016552764826 -0.0083734795736 -0.99857760679 0.0092491539168 
0.035919232441 -0.99829729645 0.034220080228 0.073162281971 -0.99477561975 0.057078655173 0.10937506145 -0.99040767935 0.079764654193 
0.14273444936 -0.98369596347 0.10197269437 0.1751474662 -0.97644189564 0.12365158545 0.20469308875 -0.96754456448 0.14372721631 
0.23196719257 -0.95898949701 0.16211191177 0.25167817528 -0.95157401145 0.17486656374 0.2677015223 -0.94553250263 0.18520436992 
0.2701629243 -0.9445440409 0.18665379005 0.26800923833 -0.94525227093 0.18559082486 0.24696973836 -0.95290368495 0.17424670319 
0.22076648697 -0.96150062667 0.16024843291 0.17089992209 -0.9744305265 0.13408730941 0.11578757193 -0.98637949141 0.10475679191 
0.033519755492 -0.99325052356 0.059019508314 -0.052871770946 -0.99615081845 0.009668723867 -0.16354074724 -0.97567425735 -0.060955764543 
-0.27426392305 -0.94916690981 -0.13374685733 -0.38535122022 -0.88214373976 -0.22109355725 -0.49216805604 -0.81160296939 -0.3073449321 
-0.56622851398 -0.71408060717 -0.38519466619 -0.63606246048 -0.61736281495 -0.46042904421 -0.66851245658 -0.52776153142 -0.51253031529 
-0.69894672639 -0.44046382523 -0.56270970236 -0.70806365237 -0.37752763609 -0.59256417606 -0.71657411314 -0.31689895717 -0.62124934426 
-0.71702651178 -0.28693001011 -0.63439802948 -0.71741767759 -0.25804840941 -0.6470775367 -0.71675458713 -0.24788784044 -0.65167912454 
-0.71627403045 -0.24075412057 -0.65418026387 -0.72388385127 -0.36777833114 -0.5635839893 -0.73093381883 -0.4854573916 -0.47965286763 
-0.73093381883 -0.4854573916 -0.47965286763 -0.73093381883 -0.4854573916 -0.47965286763 
FrenetTangent 3 128 double
-0.9580171892 -0.0045516531791 0.28667463727 -0.9580171892 -0.0045516531791 0.28667463727 -0.95990939217 -0.01245241686 0.28003374108 
-0.96253544836 -0.025736645002 0.26993172423 -0.96532640628 -0.044955678722 0.25714571025 -0.96757032344 -0.070671438449 0.2425143645 
-0.96844894829 -0.10331393354 0.22678815157 -0.96707418774 -0.14303466258 0.21049608238 -0.96254093831 -0.18957149987 0.19384939649 
-0.95401542035 -0.24214561849 0.17669204054 -0.94086207751 -0.29942311082 0.15850663019 -0.92278664677 -0.35957004532 0.13847088881 
-0.899942927 -0.42041539176 0.11555789246 -0.87294441228 -0.47969464786 0.088662832585 -0.84274942071 -0.53530789994 0.056735052307 
-0.81044043771 -0.58551598665 0.018903076432 -0.77696998175 -0.62902459952 -0.025410640656 -0.7429501293 -0.66497447463 -0.076380975825 
-0.70854888189 -0.69288435911 -0.13367777253 -0.67350694205 -0.71261581077 -0.19638509425 -0.63726473774 -0.72438493705 -0.26298311165 
-0.59914246962 -0.72881905663 -0.33143790337 -0.55852021716 -0.72699711486 -0.3994125211 -0.51497256176 -0.72040751471 -0.46456030113 
-0.46828949547 -0.71082196713 -0.52482099756 -0.41842352426 -0.70008320979 -0.57862358551 -0.3654141614 -0.6898767706 -0.62493402215 
-0.30929238949 -0.68156771253 -0.66317695304 -0.250029067 -0.67611148802 -0.69307915956 -0.1875379705 -0.67404804583 -0.71448494844 
-0.1216945345 -0.67555600057 -0.72719634925 -0.052360885559 -0.68053183798 -0.73084523338 0.020578405628 -0.68866790005 -0.72478483197 
0.097191832335 -0.69950669152 -0.70798597178 0.17748521385 -0.71244689475 -0.67890972966 0.26135508104 -0.72667386711 -0.63532559564 
0.34843582 -0.74096796199 -0.57407225909 0.437732129 -0.75332499635 -0.49080753165 0.52684863016 -0.76030636814 -0.37995361225 
0.61056639266 -0.75615272646 -0.23546068552 0.67897160301 -0.73220124312 -0.053655399412 0.71690621789 -0.67840665219 0.16065456425 
0.70884774535 -0.58931435345 0.38761252139 0.65017420067 -0.4719452977 0.59543357713 0.55375181317 -0.34527528938 0.75772284112 
0.44156341764 -0.22887723618 0.86754651688 0.33174647203 -0.13390148006 0.93381725832 0.2339768588 -0.063266212787 0.97018153758 
0.15159738767 -0.015706550869 0.98831752808 0.084772380331 0.011146136986 0.99633799845 0.032499483309 0.019400783612 0.99928343986 
-0.0064678107482 0.010555433764 0.99992337219 -0.033299054281 -0.014409435208 0.9993415538 -0.04903208579 -0.054742352224 0.99729590866 
-0.05466354429 -0.10951845495 0.99248053127 -0.051310903331 -0.17719119173 0.98283796873 -0.040398155177 -0.25520444042 0.96604279545 
-0.023798999567 -0.33982772302 0.94018653803 -0.0038090749547 -0.42644431736 0.90450579608 0.017083496649 -0.51030163709 0.85982579243 
0.036562160976 -0.58742833521 0.80844984964 0.052847627497 -0.65528518546 0.75353065895 0.06489138335 -0.7129094123 0.69824729016 
0.072371689208 -0.76059741977 0.64517742028 0.075579091249 -0.79940212191 0.59602353012 0.075243566431 -0.83068873604 0.55162906879 
0.072382807596 -0.85582670828 0.51217318804 0.068196224772 -0.87603975162 0.47739253084 0.063968086271 -0.89235086458 0.446786323 
0.061002119085 -0.90557223898 0.41978287419 0.06055973539 -0.9163168765 0.39584832991 0.063809158456 -0.9250033614 0.37456264187 
0.071785431701 -0.9318573824 0.35565245768 0.085360344256 -0.93690567295 0.33900054811 0.1052262089 -0.93997033824 0.32462779947 
0.13187368135 -0.94066318268 0.31266932839 0.16557287058 -0.93838804655 0.30333726877 0.20634924578 -0.9323555499 0.29687222393 
0.25394700474 -0.92161124478 0.29350235481 0.30778316434 -0.90508835706 0.29340175472 0.3669003224 -0.88169292889 0.29665085971 
0.42992966452 -0.85042957317 0.30319964487 0.49509540069 -0.81055701336 0.31285439475 0.56027795054 -0.76176592663 0.32527110411 
0.62316925186 -0.70432755916 0.33997466514 0.68149720744 -0.63917032527 0.35640265366 0.73328649068 -0.5678494676 0.37394906703 
0.77709542928 -0.49237549318 0.39203197256 0.8121585259 -0.41495722985 0.41013293722 0.83840142641 -0.33774428612 0.42779883752 
0.85635422057 -0.26258670707 0.44464105769 0.86698449522 -0.19091938088 0.46031258406 0.87152151532 -0.12375888969 0.47448286118 
0.87131136504 -0.061736385478 0.48683172026 0.8676975047 -0.0052134467557 0.49706524753 0.86194647551 0.045610457691 0.5049435211 
0.85519679 0.090577737391 0.51032746729 0.84842775339 0.12949255169 0.51322707093 0.84243949194 0.16208524871 0.51383273014 
0.83784262182 0.18794298204 0.5125399268 0.83504480445 0.20652698053 0.50994782171 0.83424257657 0.21720175634 0.5068162591 
0.83540967351 0.21923855263 0.50400906187 0.83827299964 0.21185559191 0.50240977922 0.842285209 0.1942477909 0.50281549541 
0.8465806672 0.16561142485 0.50583992516 0.84992361742 0.12522028342 0.51181024332 0.8506702312 0.072537404572 0.52067118481 
0.846767455 0.0073739445291 0.53191211876 0.83583397328 -0.069827997896 0.54452329593 0.81538574296 -0.15768064325 0.55703043447 
0.78324622191 -0.253572105 0.56765001843 0.73811770208 -0.35358092228 0.57459793707 0.68014762106 -0.45278918317 0.57652508113 
0.6112290873 -0.54601663033 0.57294401318 0.53479471561 -0.6288022657 0.56444868926 0.45513068485 -0.69820262189 0.55260217018 
0.37649931379 -0.75309729107 0.53953010749 0.30243936202 -0.79396240222 0.52740320074 0.23543129771 -0.82234579273 0.51799565754 
0.17689403018 -0.84032477541 0.51240879572 0.12739574841 -0.85012160961 0.51094380528 0.086910495091 -0.85389215051 0.51314204772 
0.055052921561 -0.85364851832 0.51793183238 0.031269619435 -0.8512421124 0.52384069809 0.014984233513 -0.84829374365 0.52931389291 
0.0057122576681 -0.84607797739 0.53302854173 0.0057122576681 -0.84607797739 0.53302854173 
FrenetNormal 3 128 double
-0.19146703397 -0.73408539843 -0.65150518241 -0.19146703397 -0.73408539843 -0.65150518241 -0.17199547508 -0.76268079139 -0.62348662134 
-0.14140881721 -0.80175303035 -0.58068547832 -0.10091223763 -0.84421734989 -0.52641598232 -0.052328434792 -0.88316182424 -0.46614045857 
0.002158595319 -0.91346426886 -0.40691322168 0.060533093217 -0.93265781743 -0.35564749432 0.12121731524 -0.94039465848 -0.31774871957 
0.18293284089 -0.93726784866 -0.29675672796 0.2443644062 -0.92383329061 -0.29464909324 0.3037677404 -0.89998310592 -0.31265886995 
0.35883780017 -0.86472154629 -0.35141440003 0.40666995083 -0.81598912171 -0.41083001879 0.44405956058 -0.7509037782 -0.4888298503 
0.46822475273 -0.66680957541 -0.57976768716 0.47832921596 -0.56362629358 -0.67344380786 0.47715876599 -0.44614237648 -0.75715024397 
0.47122891901 -0.32358162368 -0.82051096197 0.46853191028 -0.20607130623 -0.85907651918 0.47537709389 -0.1009135819 -0.87397543878 
0.49536808497 -0.012225312659 -0.86859714605 0.52949390761 0.058179449833 -0.84631634359 0.57721435553 0.10923985374 -0.80925289133 
0.63726550664 0.13972830496 -0.75787114659 0.70702906275 0.14882785008 -0.69134663916 0.78210212616 0.13651300851 -0.6080135383 
0.85579914963 0.1045956191 -0.50662369858 0.9196753098 0.058016638852 -0.38837017671 0.96621439294 0.0043367407198 -0.2577032005 
0.99145901034 -0.048117472426 -0.12121773659 0.99558234852 -0.092689603911 0.014980809336 0.9811039567 -0.12558619804 0.1471840107 
0.95067202486 -0.14529719821 0.27406463714 0.90581892332 -0.15140357214 0.39568805454 0.84676284484 -0.14334776435 0.51229298556 
0.77248861365 -0.11988890219 0.62360884608 0.6809212161 -0.078721012514 0.72811352113 0.56874487863 -0.016847336539 0.82234143169 
0.4315540243 0.068368798661 0.89949254109 0.26551791237 0.17676358336 0.94776308949 0.071831429184 0.30108888796 0.950886811 
-0.13692307038 0.42410864525 0.895200497 -0.33712489798 0.52311963654 0.7827468614 -0.50656833998 0.58252809878 0.63564890551 
-0.63752377586 0.60033507246 0.482867721 -0.73636449961 0.58198523442 0.34505146084 -0.81549011039 0.53055715137 0.23126821873 
-0.88714746671 0.43875456351 0.14305175744 -0.95716380384 0.2787531128 0.078320844693 -0.99941095146 -0.010397169588 0.032705488223 
-0.88666671211 -0.46240827461 -0.00085393801142 -0.539745876 -0.84128916226 -0.030115358241 -0.21228978901 -0.97511123821 -0.063961852698 
-0.0129570163 -0.99380518865 -0.11037827117 0.1007710641 -0.98003009858 -0.17142403136 0.16591662813 -0.95512285804 -0.24538133294 
0.20112649259 -0.92285155442 -0.32847091574 0.21553673953 -0.88360225852 -0.41568132342 0.21345318741 -0.83826501696 -0.50174644804 
0.19719183434 -0.78884379767 -0.58210037222 0.16831659424 -0.73794390693 -0.65353524337 0.12795818727 -0.68800103302 -0.71433975171 
0.077798839167 -0.6405976923 -0.76392534795 0.021084670527 -0.59631830308 -0.80247113224 -0.037086575596 -0.55514580198 -0.83092582368 
-0.088217286888 -0.51700113169 -0.85142676733 -0.12081667884 -0.48223657995 -0.86766998973 -0.12103602345 -0.45133557002 -0.8841077334 
-0.071632506666 -0.42345357585 -0.90308131034 0.045821095482 -0.3936060831 -0.91813652501 0.24260626228 -0.34968993637 -0.90490836547 
0.49144473995 -0.27724091861 -0.82560253186 0.71791182836 -0.17809189683 -0.6729679658 0.86611519375 -0.073776945509 -0.49436973357 
0.94201895609 0.020739493622 -0.33491813892 0.97252256301 0.10431717404 -0.20812926664 0.97726064307 0.18124553175 -0.1100531359 
0.96623286842 0.25541947739 -0.033984328104 0.94387201078 0.32930872225 0.0257175564 0.91187664198 0.40395611617 0.072804162107 
0.87072355117 0.47934948532 0.10983882901 0.82039329409 0.55468938872 0.13883272325 0.76096563671 0.62847492095 0.16109181694 
0.69278015598 0.6988483734 0.17795113507 0.61673397909 0.76378069867 0.19046848397 0.53433309669 0.82139102789 0.19951170662 
0.44742737018 0.87024926863 0.20609453866 0.35835180666 0.90952248514 0.21060111986 0.2695517596 0.93910106169 0.21314559539 
0.18351374348 0.95960436981 0.21326546697 0.10252585326 0.97227683901 0.21015755458 0.028796451768 0.97887409758 0.20242595052 
-0.035824087845 0.98140591911 0.18857109181 -0.089886402367 0.98181577284 0.16720712564 -0.13216117652 0.98172563986 0.13692403536 
-0.1619645374 0.9820055627 0.097121385155 -0.17840823327 0.98283574118 0.046951125323 -0.1802083646 0.98351727743 -0.01478885824 
-0.16408726913 0.98215433835 -0.091914219628 -0.11813555464 0.97255850155 -0.20043440769 0.03176640291 0.89868997123 -0.43743254482 
0.52028489913 -0.61105756172 -0.59658384156 0.27916415392 -0.9582584924 -0.061709293624 0.18619344486 -0.98024052599 0.066787066836 
0.11714721248 -0.98503279019 0.12643944343 0.050501582461 -0.98623792808 0.15743042715 -0.019800655102 -0.98531078148 0.16961897876 
-0.096163798683 -0.98130878411 0.16669011381 -0.17926532946 -0.97222186531 0.15049447258 -0.26855982793 -0.95542072248 0.12266565074 
-0.36219914534 -0.92820505004 0.085130277779 -0.45719845362 -0.88843726388 0.040605444822 -0.54983454541 -0.83524152365 -0.0073191424713 
-0.63646503176 -0.76939598154 -0.054241007931 -0.71436260948 -0.69323669083 -0.095440833344 -0.78242380656 -0.60984342976 -0.12611097538 
-0.84100916257 -0.52208822414 -0.14187133143 -0.89136112392 -0.43159242117 -0.13857607565 -0.93421740593 -0.33843820421 -0.11268283095 
-0.968471139 -0.24140227892 -0.061551544773 -0.99001892042 -0.14029406231 0.013420628978 -0.99362297311 -0.037159178657 0.10645460413 
-0.97712204602 0.060662166274 0.2038445701 -0.94636456454 0.14340870558 0.28953074819 -0.91338145288 0.20377594789 0.35243394359 
-0.89025754924 0.23845788267 0.38804553111 -0.89025754924 0.23845788267 0.38804553111 
FrenetBinormal 3 128 double
0.21340909096 -0.67904190612 0.7023949385 0.21340909096 -0.67904190612 0.7023949385 0.22134027058 -0.64665520005 0.72996269553 
0.23136347391 -0.59710108309 0.76807632402 0.24075225781 -0.53411239744 0.81040872235 0.24712224528 -0.46371407137 0.85082304617 
0.2492026786 -0.39358513774 0.88486652345 0.24719073612 -0.33119553272 0.9106076318 0.24253103836 -0.28234824728 0.92814770521 
0.23746611014 -0.25078771762 0.93846436652 0.23465844985 -0.23849077943 0.94236805975 0.23704422463 -0.24645444118 0.93971817264 
0.24766542211 -0.27478636383 0.92906097375 0.26942086808 -0.32257525953 0.90739054314 0.30427704573 -0.38676733077 0.87053231491 
0.35206800174 -0.46101628986 0.81456252224 0.40929061632 -0.53540027492 0.73880155455 0.46940879562 -0.59897072383 0.64875993602 
0.52526354134 -0.64436495692 0.5557805452 0.57172217733 -0.67060668278 0.47267370242 0.60655607543 -0.68196987614 0.40866467354 
0.62899822058 -0.68459719867 0.36835840439 0.63850714078 -0.68417128455 0.35244614421 0.63374036357 -0.68489390938 0.35957403199 