# vtk DataFile Version 4.2
vtk output
ASCII
DATASET POLYDATA
POINTS 128 float
0 0 0 -0.197354 0.0479278 0.265804 -0.600916 0.144899 0.778201 
-0.974071 0.231795 1.18043 -1.31879 0.306899 1.48164 -1.69864 0.383237 1.78363 
-2.11155 0.457737 2.07956 -2.54115 0.523766 2.33951 -2.98647 0.578283 2.56178 
-3.45 0.619069 2.75138 -3.92905 0.64279 2.90573 -4.41932 0.645912 3.02062 
-4.9165 0.625649 3.09569 -5.41632 0.579662 3.13214 -5.91437 0.506723 3.13301 
-6.40646 0.406176 3.10216 -6.88974 0.278482 3.04442 -7.36206 0.124617 2.96486 
-7.82235 -0.0537256 2.86786 -8.27007 -0.254547 2.75733 -8.70529 -0.475599 2.63606 
-9.12835 -0.714517 2.50616 -9.53978 -0.968819 2.36839 -9.94016 -1.23595 2.22269 
-10.3299 -1.51325 2.06738 -10.7091 -1.79799 1.89992 -11.077 -2.0875 1.71624 
-11.4321 -2.37917 1.51155 -11.7711 -2.67063 1.28081 -12.0892 -2.95971 1.0191 
-12.3802 -3.24498 0.72362 -12.6363 -3.52542 0.39306 -12.8503 -3.80075 0.0297413 
-13.0151 -4.07112 -0.361829 -13.1267 -4.33729 -0.774611 -13.183 -4.60036 -1.20022 
-13.1852 -4.86182 -1.63058 -13.1368 -5.12336 -2.05797 -13.0418 -5.38683 -2.47622 
-12.9051 -5.65414 -2.88016 -12.731 -5.92697 -3.26551 -12.5234 -6.20698 -3.62843 
-12.2855 -6.49689 -3.96396 -12.0196 -6.79991 -4.26638 -11.7304 -7.11686 -4.52983 
-11.4232 -7.44766 -4.74706 -11.0987 -7.80342 -4.89391 -10.7578 -8.19934 -4.93321 
-10.4554 -8.59552 -4.81513 -10.2811 -8.91414 -4.48839 -10.2538 -9.11765 -4.00906 
-10.3385 -9.20122 -3.50656 -10.4967 -9.19112 -3.02963 -10.689 -9.13371 -2.56823 
-10.8967 -9.05035 -2.11773 -11.1167 -8.94352 -1.67842 -11.3444 -8.81823 -1.24784 
-11.5736 -8.68173 -0.821406 -11.7992 -8.54085 -0.394704 -12.0167 -8.40211 0.0365128 
-12.2207 -8.27418 0.477862 -12.4046 -8.16822 0.935926 -12.5551 -8.10851 1.41334 
-12.6538 -8.13027 1.90824 -12.6916 -8.25291 2.39928 -12.6694 -8.47968 2.84811 
-12.5997 -8.79376 3.23812 -12.5056 -9.16043 3.57407 -12.4017 -9.55739 3.86487 
-12.2935 -9.97527 4.12247 -12.1848 -10.4075 4.35563 -12.0773 -10.8499 4.56966 
-11.9717 -11.2993 4.76896 -11.8676 -11.7538 4.95712 -11.7637 -12.2117 5.13707 
-11.6586 -12.6716 5.31106 -11.5502 -13.1322 5.48103 -11.4362 -13.5924 5.64859 
-11.3139 -14.0508 5.81511 -11.1802 -14.5061 5.98174 -11.0319 -14.9564 6.14951 
-10.8658 -15.3996 6.3194 -10.6785 -15.8332 6.49241 -10.4666 -16.2536 6.66956 
-10.2274 -16.6569 6.85202 -9.95835 -17.0378 7.04112 -9.65816 -17.3905 7.2382 
-9.32699 -17.7085 7.44461 -8.96659 -17.9856 7.66116 -8.58102 -18.2167 7.88789 
-8.17529 -18.3986 8.12416 -7.75563 -18.5316 8.36841 -7.3277 -18.6178 8.61886 
-6.89596 -18.6625 8.87358 -6.4638 -18.6715 9.13087 -6.03281 -18.6515 9.38948 
-5.6039 -18.6088 9.64854 -5.17705 -18.5494 9.90767 -4.75195 -18.479 10.1668 
-4.32799 -18.4032 10.4263 -3.90463 -18.3277 10.6869 -3.48151 -18.2579 10.9494 
-3.05867 -18.1995 11.2153 -2.6368 -18.1587 11.486 -2.21733 -18.1417 11.7632 
-1.80305 -18.1554 12.0483 -1.39798 -18.2071 12.3426 -1.00854 -18.304 12.6466 
-0.642444 -18.4526 12.9595 -0.309749 -18.6564 13.2781 -0.0196511 -18.9164 13.598 
0.221853 -19.2268 13.9133 0.411655 -19.5799 14.2181 0.553094 -19.9661 14.5091 
0.651193 -20.3763 14.7839 0.712678 -20.8037 15.0423 0.74468 -21.2431 15.2851 
0.754627 -21.6908 15.5141 0.749268 -22.1441 15.7313 0.73305 -22.6025 15.9382 
0.713401 -23.0643 16.1378 0.709107 -23.5245 16.3384 0.733202 -23.9801 16.5455 
0.770515 -24.4387 16.7534 0.839524 -24.8899 16.9682 1.10584 -25.2489 17.2495 
1.61946 -25.4425 17.5993 1.91782 -25.4966 17.7801 
LINES 1 129
128 0 1 2 3 4 5 6 7 8 9 10 11 12 13 14 15 16 17 18 19 20 21 22 23 24 25 26 27 28 29 30 31 32 33 34 35 36 37 38 39 40 41 42 43 44 45 46 47 48 49 50 51 52 53 54 55 56 57 58 59 60 61 62 63 64 65 66 67 68 69 70 71 72 73 74 75 76 77 78 79 80 81 82 83 84 85 86 87 88 89 90 91 92 93 94 95 96 97 98 99 100 101 102 103 104 105 106 107 108 109 110 111 112 113 114 115 116 117 118 119 120 121 122 123 124 125 126 127 

CELL_DATA 1
FIELD FieldData 2
Length 1 1 double
57.805435316 
Tortuosity 1 1 double
0.85612921504 
POINT_DATA 128
SCALARS MaximumInscribedSphereRadius float
LOOKUP_TABLE default
1.55 1.47951 1.40903 1.34939 1.29076 1.27232 1.25486 1.24739 1.24048 
1.24 1.24 1.24 1.24 1.24928 1.25961 1.31799 1.38289 1.4589 
1.53666 1.5492 1.54988 1.55 1.55 1.55 1.55 1.55 1.55 
1.54983 1.54962 1.52359 1.48933 1.4512 1.41172 1.39654 1.39054 1.37835 
1.36362 1.33173 1.29226 1.26625 1.24666 1.24 1.24 1.28268 1.34901 
1.47519 1.63701 1.92453 2.29064 2.43386 2.43802 2.34317 2.18916 2.08024 
2.00002 2.06796 2.23711 2.35727 2.44144 2.47986 2.48211 2.63829 2.92505 
3.03571 2.987 2.75071 2.34164 2.09276 1.99936 1.92996 1.88545 1.86179 
1.86134 1.89838 1.98023 2.09386 2.24833 2.33113 2.31494 2.24489 2.09473 
1.99615 1.98016 2.00184 2.08853 2.09451 1.95052 1.82855 1.75066 1.7435 
1.8887 2.00461 2.05246 2.06432 1.98545 1.92068 1.89467 1.87148 1.85681 
1.83172 1.77196 1.70767 1.62672 1.62174 1.92911 2.22376 2.45979 2.65242 
2.62004 2.56616 2.38687 2.19583 1.92722 1.68919 1.68441 1.68909 1.78001 
1.87496 2.0153 2.15678 2.31499 2.45789 2.28292 2.11205 2.09374 2.08657 
2.28329 2.48 
TEXTURE_COORDINATES TCoords 2 float
0 0 0.00787402 0 0.015748 0 0.023622 0 0.0314961 
0 0.0393701 0 0.0472441 0 0.0551181 0 0.0629921 0 
0.0708661 0 0.0787402 0 0.0866142 0 0.0944882 0 0.102362 
0 0.110236 0 0.11811 0 0.125984 0 0.133858 0 
0.141732 0 0.149606 0 0.15748 0 0.165354 0 0.173228 
0 0.181102 0 0.188976 0 0.19685 0 0.204724 0 
0.212598 0 0.220472 0 0.228346 0 0.23622 0 0.244094 
0 0.251969 0 0.259843 0 0.267717 0 0.275591 0 
0.283465 0 0.291339 0 0.299213 0 0.307087 0 0.314961 
0 0.322835 0 0.330709 0 0.338583 0 0.346457 0 
0.354331 0 0.362205 0 0.370079 0 0.377953 0 0.385827 
0 0.393701 0 0.401575 0 0.409449 0 0.417323 0 
0.425197 0 0.433071 0 0.440945 0 0.448819 0 0.456693 
0 0.464567 0 0.472441 0 0.480315 0 0.488189 0 
0.496063 0 0.503937 0 0.511811 0 0.519685 0 0.527559 
0 0.535433 0 0.543307 0 0.551181 0 0.559055 0 
0.566929 0 0.574803 0 0.582677 0 0.590551 0 0.598425 
0 0.606299 0 0.614173 0 0.622047 0 0.629921 0 
0.637795 0 0.645669 0 0.653543 0 0.661417 0 0.669291 
0 0.677165 0 0.685039 0 0.692913 0 0.700787 0 
0.708661 0 0.716535 0 0.724409 0 0.732283 0 0.740157 
0 0.748031 0 0.755906 0 0.76378 0 0.771654 0 
0.779528 0 0.787402 0 0.795276 0 0.80315 0 0.811024 
0 0.818898 0 0.826772 0 0.834646 0 0.84252 0 
0.850394 0 0.858268 0 0.866142 0 0.874016 0 0.88189 
0 0.889764 0 0.897638 0 0.905512 0 0.913386 0 
0.92126 0 0.929134 0 0.937008 0 0.944882 0 0.952756 
0 0.96063 0 0.968504 0 0.976378 0 0.984252 0 
0.992126 0 1 0 
FIELD FieldData 7
Curvature 1 128 double
0 0.0266082118 0.049756786872 0.071561483363 0.091558647678 0.10938290018 0.12475660604 0.13749239279 0.14746467044 
0.15460502975 0.1589168552 0.16048186424 0.15948755337 0.15623676801 0.15113874523 0.14467363331 0.13736492429 0.1297424709 
0.12232035364 0.11560015535 0.1100992885 0.10635110802 0.10489433507 0.10616853459 0.11038215073 0.11746344001 0.12700716614 
0.13833599982 0.15062189049 0.16289046909 0.17414239879 0.18347413401 0.19014108351 0.19377330537 0.19448513513 0.19287006299 
0.19005840639 0.18757040812 0.18736156097 0.19177177525 0.20360635345 0.22644844401 0.26537030937 0.3278893077 0.42529662512 
0.57142444163 0.77153436984 0.98902186234 1.1149435781 1.047856787 0.8327913096 0.59595112212 0.40641836596 0.27049274098 
0.17361758341 0.10116873704 0.042665184721 0.0089513896816 0.057555003921 0.10610542162 0.15525176929 0.20351868969 0.24696689098 
0.27960688039 0.29570393156 0.2927252265 0.27298766438 0.2423322361 0.20717222321 0.17240592194 0.14076602911 0.11332742202 
0.090275535116 0.071536242896 0.057293688086 0.048310943968 0.045679831187 0.049405989126 0.057949477695 0.069509650806 0.082869687041 
0.097265690539 0.1121002175 0.12681918064 0.14076712736 0.15310949461 0.16297870111 0.16954524467 0.17201781185 0.17000393118 
0.1634436122 0.15271530948 0.13848839238 0.12153704629 0.10269340449 0.082638803064 0.061997464825 0.04138282081 0.022657223274 
0.017304716354 0.033636494578 0.055531500625 0.079029718819 0.10337180765 0.12807976223 0.15240838562 0.17520179149 0.19489942333 
0.2096271162 0.2175750227 0.21745225581 0.20886428048 0.19241685204 0.16945206111 0.14169486985 0.11073677963 0.07792993415 
0.044804139611 0.017354590711 0.031116813817 0.060398613032 0.085906269517 0.10266116253 0.10672328926 0.095937398205 0.071062239186 
0.035754603236 0 
Torsion 1 128 double
0 0 0.030148930357 0.041071122546 0.052040119339 0.062598419734 0.072403411246 0.081146260215 0.088624314182 
0.094668733044 0.09915814736 0.10198455536 0.10287625893 0.10139012513 0.096878482176 0.088337251581 0.0746263132 0.054625361459 
0.027595052665 -0.0060341067053 -0.044028972677 -0.081254213065 -0.1101871843 -0.12346337468 -0.11773163558 -0.09571854308 -0.063962356857 
-0.028917115495 0.005256651378 0.036722349679 0.06541633932 0.092047153148 0.11769535792 0.14386780869 0.17177960896 0.20258855895 
0.23679288401 0.27336471365 0.30908543211 0.33808695366 0.35367578772 0.35119818236 0.33117102844 0.29822594017 0.25774935606 
0.21358837595 0.16890656981 0.12802199134 0.095537626012 0.071650860572 0.051950276729 0.033606384006 0.017467311497 0.0046506920047 
-0.002534288801 0.0018759581967 0.08218985044 2.2161420863 0.0099799887479 -0.030419600252 -0.041371840373 -0.047160151791 -0.050923947866 
-0.053578914985 -0.055490660887 -0.056496001152 -0.056024269416 -0.052823003053 -0.045335136316 -0.030711467362 -0.0047299961406 0.038730971059 
0.11039799026 0.22441703907 0.38987250489 0.56876622287 0.63150986316 0.52151926294 0.36248933312 0.2420570957 0.16654017625 
0.12158446869 0.094918716829 0.078673131366 0.068287034716 0.061050747039 0.055812274641 0.051532977086 0.047727313167 0.044558104704 
0.042172415282 0.041001525692 0.042087235265 0.047334718923 0.060633501921 0.09168111291 0.16750825375 0.39554955668 1.3862859098 
2.4358262694 0.63429445986 0.21718222731 0.09329458366 0.042676409404 0.018559718053 0.0062882906018 0.00028571101856 -0.0017228843918 
-0.0012035664715 0.0011346202245 0.0051474106565 0.011016387752 0.019151996032 0.031260749827 0.051339636541 0.090057567739 0.18783122399 
0.57332974501 3.7785508761 1.1336371215 0.27795640898 0.11746095124 0.062548020182 0.037537651095 0.02372077665 0.014501824761 
0 0 
Abscissas 1 128 double
0 0.50280946892 1.0056189378 1.508427023 2.0112349791 2.514046194 3.0168574871 3.5196654308 4.0224731888 
4.5252827542 5.0280924552 5.5309016877 6.033710876 6.5365242912 7.039338191 7.5421466922 8.0449544609 8.5477648535 
9.0505756609 9.5533832011 10.056190148 10.559000516 11.061811592 11.564612844 12.067411807 12.570242153 13.073080672 
13.575875276 14.078657194 14.581469682 15.084291903 15.587104056 16.089912704 16.592719207 17.0955249 17.598333458 
18.101143188 18.603956587 19.106771606 19.609576898 20.11237755 20.615178456 21.117979491 21.620791619 22.123609896 
22.62643024 23.129251814 23.632062247 24.134865714 24.637671497 25.140478725 25.643284618 26.146089714 26.648898319 
27.151709158 27.654512395 28.157310441 28.66012193 29.1629433 29.665753863 30.168555883 30.671362964 31.174174339 
31.676983681 32.179791186 32.682598063 33.185404362 33.688213956 34.191026748 34.693827146 35.196614692 35.699428171 
36.202270511 36.705095089 37.207898447 37.710704567 38.213514233 38.716318799 39.219116319 39.721922063 40.224740038 
40.727549854 41.230346606 41.733154085 42.235980076 42.738801244 43.241613447 43.744423097 44.247227637 44.750034477 
45.252846274 45.755655656 46.258459423 46.761265357 47.264076753 47.766887597 48.269696922 48.772502972 49.275299147 
49.778099279 50.280912574 50.783726561 51.286543102 51.789357809 52.29216498 52.794973434 53.297787799 53.8006059 
54.303443374 54.806272526 55.309053161 55.811838717 56.314656759 56.817471826 57.320264208 57.82305858 58.32587105 
58.828682698 59.3314851 59.834287099 60.337083178 60.839880437 61.342702195 61.845523875 62.348342694 62.851161676 
63.353983633 63.85680559 
ParallelTransportNormals 3 128 double
0 -0.98297794607 0.18372359004 -0.0097362859545 -0.98071646802 0.19458653872 -0.019472571909 -0.97845498997 0.20544948739 
-0.023122986693 -0.97768063616 0.20878252285 -0.02620613822 -0.977044897 0.21141369609 -0.023207741356 -0.97752538667 0.20950153161 
-0.020063140092 -0.9780327112 0.20748014232 -0.0077463685349 -0.97926610241 0.20193086505 0.005078606814 -0.9805397229 0.19618611757 
0.028651000191 -0.98110011787 0.189676954 0.05302990202 -0.98160699092 0.18311042707 0.087905045521 -0.97923270806 0.17904716178 
0.12377044463 -0.97658660593 0.17522006378 0.16626294072 -0.96922298956 0.17612399842 0.20951502243 -0.96131866043 0.17757019529 
0.25350775838 -0.94864970409 0.18339403845 0.29760100336 -0.93533417336 0.1898119415 0.33747842506 -0.91914076723 0.19849235579 
0.37668954636 -0.90249252004 0.20753035437 0.40917153981 -0.88558524424 0.21674691951 0.44043082632 -0.868630902 0.22599593084 
0.46385690939 -0.85401960284 0.23401430553 0.48566430893 -0.8398924792 0.2417783767 0.49941059586 -0.83013979865 0.24742363442 
0.51127978815 -0.82140574221 0.25257550945 0.51697422388 -0.81697045008 0.25546990736 0.52106057507 -0.81365468004 0.25777639317 
0.52354504626 -0.81149707809 0.25954466456 0.52556675049 -0.8096740592 0.26115745124 0.53122498663 -0.80365038477 0.26792274805 
0.53804126028 -0.79628903016 0.27632883892 0.54802302901 -0.78149380321 0.29660327911 0.55910610023 -0.76411226924 0.32100681832 
0.56713883688 -0.73998216318 0.35833111954 0.57401911962 -0.71330236358 0.40053704359 0.5728360468 -0.68263665093 0.44983720101 
0.56835801573 -0.65034216017 0.50203630075 0.5551491102 -0.61547596291 0.55572615982 0.53808516103 -0.57947425044 0.61007425104 
0.51245232175 -0.53969747538 0.66415990346 0.4827333466 -0.49812053502 0.71812041009 0.44218251208 -0.44856604296 0.77211730566 
0.39605734933 -0.39490611618 0.82613292784 0.33025682027 -0.32148091476 0.87954663604 0.25354972002 -0.23709930363 0.93262668754 
0.12341177683 -0.084220308497 0.96032500411 -0.038541220653 0.10944501662 0.97290992867 -0.20708069034 0.36955334216 0.80797190026 
-0.37973760673 0.6711976379 0.53205772629 -0.42852959941 0.82652683893 0.26030044841 -0.40005020538 0.89057943051 -0.0088636084337 
-0.36651861982 0.90960656037 -0.170082332 -0.32996888302 0.9017357287 -0.26681511116 -0.30259874092 0.89247909438 -0.33131220974 
-0.28107302919 0.88234015236 -0.37528561461 -0.26801141658 0.87570755818 -0.40135302061 -0.26073191618 0.87147026874 -0.41518823354 
-0.2631341227 0.87309023766 -0.40995310052 -0.27265184989 0.87901496847 -0.39070231492 -0.2945110593 0.89084733497 -0.33633761581 
-0.32612406225 0.90734865921 -0.25422147999 -0.36183459396 0.90777854877 -0.1083456503 -0.40102089373 0.89457568977 0.091614951059 
-0.4162710208 0.83450186922 0.29665438766 -0.40986022906 0.73201240832 0.50628989062 -0.3948735019 0.63334203614 0.65489055254 
-0.37198731085 0.53818950217 0.74727081429 -0.35369605044 0.46389006808 0.81019590728 -0.33986425989 0.40982897444 0.84453418405 
-0.32919689095 0.36737857237 0.86934527762 -0.32181082028 0.33696769824 0.88427730521 -0.3160154376 0.31270662698 0.89558725408 
-0.31199039375 0.29528991171 0.90286604996 -0.30872706503 0.28118786447 0.90858857574 -0.30637374937 0.27104581629 0.91245184197 
-0.30436968798 0.26265451227 0.91560931549 -0.30281415436 0.25651159121 0.91786037884 -0.30139296382 0.25123005558 0.91979995314 
-0.30015735151 0.2471384166 0.92130924411 -0.29906729655 0.24378456246 0.92256356852 -0.29819370488 0.24152789322 0.92343872346 
-0.29782403464 0.24046053823 0.92383923527 -0.29826136507 0.24129780033 0.92347963392 -0.30021797611 0.24411332918 0.92208216098 
-0.30479631377 0.25034262802 0.91889369859 -0.3123196123 0.25857221788 0.91398958604 -0.32531559527 0.27051899176 0.90589724369 
-0.34157033677 0.28282024086 0.8960218967 -0.3643461949 0.29583083198 0.88257857097 -0.38854869674 0.30730547543 0.86834305648 
-0.41582472689 0.3154711087 0.85240086882 -0.44203215365 0.32184908463 0.83703411078 -0.46575572016 0.32407183229 0.82300488055 
-0.48729122277 0.32543149478 0.81022794351 -0.50331245443 0.32461604464 0.80060698556 -0.5173162995 0.32370573189 0.79218183155 
-0.52577495783 0.32253467047 0.78704358161 -0.53274481108 0.32154936758 0.78280595185 -0.53522582241 0.32112413846 0.78128374915 
-0.53686897294 0.32083684646 0.78027857894 -0.53572539902 0.32100833322 0.78099305844 -0.5343776109 0.32117539711 0.78184685571 
-0.53227668647 0.32132614959 0.78321445303 -0.53055317805 0.32144496335 0.78433822104 -0.53038141501 0.32143246116 0.78445948521 
-0.53092978738 0.32163658272 0.78399927329 -0.53479770045 0.32283925452 0.78085868557 -0.53914975855 0.32463654937 0.77710553214 
-0.54601183411 0.32951662753 0.77017657288 -0.55266754525 0.33483900056 0.7631516764 -0.55812016122 0.34273993251 0.75556747032 
-0.56312555968 0.35042848575 0.74838057418 -0.56517792953 0.35671467796 0.74381716129 -0.56701677356 0.36246832372 0.73966738095 
-0.56722696678 0.36416001448 0.73867254948 -0.56741136141 0.36534120127 0.73794803582 -0.56736108119 0.361878628 0.73968244718 
-0.56733279802 0.35797628262 0.74160068881 -0.56755187247 0.34912868074 0.7455861099 -0.56773786947 0.33984196014 0.74976276566 
-0.56743967047 0.32412730945 0.7567387626 -0.56689746319 0.30795655054 0.76400998459 -0.56129022414 0.28231806899 0.77740937689 
-0.55500900802 0.25657155069 0.7912013653 -0.52365231927 0.22680550015 0.81959998267 -0.49392177826 0.19858310738 0.84652585691 
-0.49392177826 0.19858310738 0.84652585691 -0.49392177826 0.19858310738 0.84652585691 
FrenetTangent 3 128 double
-0.7453328851 0.13867812889 0.65210985804 -0.7453328851 0.13867812889 0.65210985804 -0.75768062638 0.13487337719 0.63853679654 
-0.77666870235 0.12836607931 0.61669107053 -0.80097087499 0.11874163069 0.58681009071 -0.8289446265 0.10553740802 0.54928377157 
-0.85876356796 0.088322327726 0.50470219018 -0.88855468254 0.066774416925 0.45388517643 -0.91652901009 0.040746934578 0.39788724656 
-0.94109774921 0.010314404874 0.33797727659 -0.9609713392 -0.024207255724 0.27558681756 -0.97523355052 -0.062269429366 0.2122311007 
-0.98338270354 -0.10312783935 0.14940919356 -0.98533368407 -0.14590097985 0.088489745798 -0.98137649735 -0.18964096166 0.030601897265 
-0.97209666658 -0.23340544853 -0.023451384235 -0.95827111481 -0.27631693398 -0.073249044485 -0.94075456553 -0.31760818384 -0.1187682154 
-0.92037220914 -0.35664943646 -0.16036263941 -0.89783001649 -0.3929581606 -0.19870869507 -0.87364478859 -0.42620092492 -0.23472868373 
-0.8480952261 -0.45618367336 -0.26950128686 -0.82119044615 -0.48283880559 -0.30415939729 -0.79265592789 -0.50620516764 -0.33978361972 
-0.76194275611 -0.52639937611 -0.37728892543 -0.72825528512 -0.54359101048 -0.41731649023 -0.69060753494 -0.55797656576 -0.46013409431 
-0.64792064408 -0.56975705732 -0.50554498773 -0.59915107839 -0.57913128623 -0.55283355413 -0.54345288628 -0.58630375913 -0.60075524336 
-0.48035931627 -0.59150778811 -0.64759050632 -0.40993127404 -0.59504715174 -0.69128520725 -0.33285280088 -0.59733772038 -0.72965516565 
-0.25042786651 -0.59893693781 -0.76063159821 -0.16444491001 -0.60055839071 -0.78248801328 -0.076964104417 -0.60304666506 -0.79398441193 
0.0099366305998 -0.60733029989 -0.79438729233 0.094384174612 -0.61436117172 -0.78335941832 0.17485382143 -0.62504665662 -0.76075148254 
0.25021978581 -0.64019400219 -0.72632065807 0.31968386699 -0.66045411332 -0.67941341567 0.38259651595 -0.68624967798 -0.61861238709 
0.43817123094 -0.71762199675 -0.54131750587 0.48497754842 -0.7538653171 -0.4432650011 0.52008173023 -0.79267263286 -0.31809604052 
0.53765027881 -0.82830417961 -0.15762094957 0.52729243925 -0.84848219952 0.045173450208 0.47468649787 -0.83217365246 0.28663520526 
0.37068015558 -0.75706903278 0.53799879355 0.22762522834 -0.62245922273 0.74881991925 0.078015204076 -0.45947028289 0.88476024271 
-0.050801939548 -0.30479501757 0.95106212216 -0.14969864152 -0.17724354246 0.9727152941 -0.22092531667 -0.080025318461 0.97200203336 
-0.26972012191 -0.010219846615 0.96288452608 -0.30075908812 0.035872000507 0.95302527275 -0.31738253092 0.060992763135 0.94633409106 
-0.32172734608 0.066679291729 0.94448154394 -0.31501622738 0.0534874831 0.94757789423 -0.29783699442 0.021377667421 0.9543773468 
-0.27044956217 -0.029755085937 0.96227421725 -0.23316812971 -0.099327759121 0.9673503086 -0.186879326 -0.18518527097 0.96477071521 
-0.13354934357 -0.28288119808 0.94981198171 -0.076411364885 -0.38572869385 0.91944259095 -0.019526012979 -0.48605256306 0.87371141732 
0.033222795566 -0.57717799346 0.81594228333 0.079127165188 -0.65499648121 0.75147754546 0.11708591738 -0.71825965117 0.68585272578 
0.1473931692 -0.76783302157 0.62346427697 0.17124703626 -0.80563483641 0.56712164739 0.1902644889 -0.8338098656 0.51822826272 
0.20615406916 -0.85428143775 0.47718311463 0.22055151227 -0.86857685687 0.44376939298 0.23493392952 -0.87780867219 0.41744219216 
0.25058430842 -0.88271514801 0.39751914652 0.26858757553 -0.88370799269 0.38330261927 0.28981742223 -0.88092225511 0.37414147355 
0.31492270758 -0.87425656257 0.36945791513 0.34432491135 -0.8633997033 0.36875643421 0.37819518459 -0.84786406184 0.37161126866 
0.41643089065 -0.8270290541 0.37763508441 0.45862236158 -0.80020458581 0.38644294574 0.5040327416 -0.76671553684 0.39761574538 
0.55159444655 -0.72601560564 0.41066398297 0.59992229693 -0.67783852312 0.42500373435 0.64739211669 -0.62235124686 0.43995723972 
0.69228672052 -0.56026153938 0.45480336859 0.73297667916 -0.49288750953 0.46883588894 0.76813379567 -0.42211648921 0.48144380926 
0.7969114991 -0.3502389211 0.49220398287 0.81903897079 -0.2797161683 0.50093315873 0.83480948689 -0.21292002936 0.50769890851 
0.8449612127 -0.15193793756 0.51279178246 0.85050595591 -0.098451757338 0.5166690144 0.8525440135 -0.053711067211 0.51988828252 
0.85209976441 -0.018578886614 0.52304953539 0.85000545623 0.0063819476815 0.52673522298 0.84681944648 0.020814824765 0.53147301731 
0.84277730373 0.024487244805 0.53770511543 0.83777271869 0.017241330587 0.54574683538 0.83134942105 -0.0010152267801 0.55574914254 
0.82271127538 -0.030303686472 0.56765116396 0.81075417649 -0.07050141782 0.58112581718 0.7941243892 -0.12122456597 0.59554265933 
0.77134120895 -0.18168226064 0.60993794402 0.74099619373 -0.25050136779 0.62303587827 0.70203188832 -0.32559918363 0.63335329746 
0.65408359622 -0.4041723277 0.63938984875 0.59778515473 -0.48286588866 0.63991674642 0.53492067739 -0.55816216057 0.63428295847 
0.46832680712 -0.6269021526 0.62262644724 0.4015355051 -0.68676523366 0.60590655383 0.3382723608 -0.73652507909 0.58574962039 
0.28198666873 -0.77602741247 0.56414977954 0.23554348541 -0.80591793833 0.54315333301 0.20110705263 -0.82724800413 0.52461099211 
0.18012780936 -0.84111641479 0.50997759664 0.17336479128 -0.84837505433 0.50020437457 0.18083723224 -0.84948175764 0.49565980155 
0.20164007541 -0.84454877498 0.49606314787 0.23367216075 -0.83361457603 0.50048382584 0.2734148473 -0.81715900211 0.50744013101 
0.31602868031 -0.79667679507 0.51520089035 0.35596858871 -0.77496276432 0.52222512174 0.38798339592 -0.75578658549 0.52749930965 
0.4080517172 -0.74294404601 0.53059206608 0.4080517172 -0.74294404601 0.53059206608 
FrenetNormal 3 128 double
-0.6661311476 -0.19503595496 -0.71988212262 -0.6661311476 -0.19503595496 -0.71988212262 -0.65171933986 -0.2079089186 -0.72940783079 
-0.62829583927 -0.22789521735 -0.74384683118 -0.59581112145 -0.25431424592 -0.7617961485 -0.55430917316 -0.28630054146 -0.78151989131 
-0.50401950035 -0.32275501022 -0.8011201824 -0.44543459104 -0.36238192295 -0.8186985813 -0.37936209911 -0.40374805801 -0.8325094014 
-0.30693520794 -0.44541621673 -0.84106787598 -0.22959293721 -0.48597256479 -0.84327797876 -0.14900254092 -0.52416435835 -0.83848075007 
-0.066967347613 -0.55889013961 -0.82653323357 0.014687384135 -0.58917095456 -0.80787490804 0.094238783646 -0.61412012305 -0.78356590414 
0.17017725899 -0.63287015145 -0.75532448122 0.24127806421 -0.64439873979 -0.72562742498 0.30669629028 -0.64759123244 -0.69754066633 
0.36595580237 -0.6410466451 -0.67463734667 0.41892384767 -0.62322043107 -0.66037800096 0.46566638088 -0.59252760502 -0.65731716775 
0.50631052545 -0.54785323466 -0.66596282561 0.54114755217 -0.48972197627 -0.68361664165 0.57103651075 -0.42119689689 -0.70463499589 
0.59797329697 -0.34806211442 -0.7219977151 0.62497354813 -0.27696806752 -0.72986077694 0.65510885011 -0.21306663073 -0.72486895738 
0.69038081988 -0.15884331344 -0.70579255119 0.73121226881 -0.11456411244 -0.67246091491 0.77655618336 -0.079365080174 -0.62502934182 
0.8242914487 -0.05219533404 -0.56375460504 0.87170047614 -0.032476934862 -0.48896168417 0.91575170455 -0.020164273643 -0.40123835519 
0.95336354764 -0.015841545545 -0.3014083467 0.9814926612 -0.020703202624 -0.19037734479 0.99694645471 -0.036002290642 -0.069293589276 
0.9961673298 -0.063028182829 0.060647334639 0.97496783915 -0.10208004473 0.19752816784 0.92884041714 -0.1515981108 0.33804362482 
0.85432096327 -0.2069814328 0.47675400175 0.75135047503 -0.26017699254 0.60644900546 0.62481719494 -0.30104829496 0.72039808232 
0.48347041586 -0.31953707527 0.81495546781 0.33540727776 -0.30776219546 0.89038440523 0.18480434634 -0.25917045275 0.94798630264 
0.030838480965 -0.16749623718 0.98539027731 -0.12879630266 -0.027264032669 0.99129621453 -0.29087322224 0.15904416741 0.94344990402 
-0.43813012708 0.36822329021 0.82003268245 -0.54460124173 0.55610944612 0.62781507743 -0.59856514666 0.68812163315 0.41013215332 
-0.61091905753 0.7628258118 0.21183646051 -0.60017211747 0.79810889074 0.053062490849 -0.57991027793 0.81208734974 -0.064947717022 
-0.55828189638 0.81639475303 -0.14771909626 -0.5409854434 0.81654651221 -0.20146102211 -0.53926388946 0.80925744163 -0.23301684638 
0.33792521223 -0.92373662341 0.18032526585 0.46156941306 -0.86375238187 0.20220163141 0.46734674946 -0.86848297493 0.16530075021 
0.47028186432 -0.87623817241 0.10507917636 0.47356267833 -0.88044004339 0.02374278196 0.47547874803 -0.87642727612 -0.076126144271 
0.4736359738 -0.86007903622 -0.18956005849 0.46546935451 -0.829288351 -0.30922339966 0.44967265689 -0.78477370102 -0.42652636475 
0.42659588078 -0.73010038428 -0.53382523674 0.39836099329 -0.67025745414 -0.62614971389 0.36838202536 -0.60992403093 -0.70163192621 
0.34081006144 -0.55231881643 -0.76078408701 0.32147429134 -0.49842840737 -0.80512322208 0.31757038716 -0.44721699478 -0.83614951341 
0.33996490484 -0.39475047799 -0.85357830549 0.40342180837 -0.33299938225 -0.85226888712 0.52342154206 -0.24762815326 -0.81529760641 
0.69517036416 -0.12170471021 -0.70846745042 0.85913206552 0.039821218413 -0.51020227809 0.94132557203 0.191722055 -0.27775676601 
0.94853977553 0.30348467413 -0.090384438912 0.9232599673 0.38267695689 0.033902499009 0.8885774946 0.44506233114 0.11112856294 
0.85107303699 0.50069910149 0.15803510837 0.81113794261 0.55458165909 0.1857267387 0.76768710661 0.60865071145 0.20050141592 
0.71956424168 0.66318440939 0.20594596677 0.66604252963 0.71744891842 0.20409409151 0.60698702852 0.77011108754 0.1962031092 
0.54270758201 0.81961537013 0.18357321556 0.47436881159 0.86433202432 0.16704604853 0.40350661565 0.9029455691 0.14789087314 
0.33202224077 0.93461737011 0.12748177566 0.26186645418 0.95910971206 0.10739888461 0.19476655915 0.97676831658 0.089384803812 
0.13174730439 0.9883836946 0.075764899742 0.072856805946 0.99490751619 0.069648546688 0.016012222966 0.99692278691 0.076736990081 
-0.045462264739 0.99296499434 0.10933298903 -0.13236645013 0.97043168242 0.20184516996 -0.32293017143 0.81410080486 0.48265513972 
-0.52207598784 -0.20595084929 0.82765990032 -0.33750285714 -0.76934378588 0.54240387218 -0.27030722462 -0.87448308176 0.40275717751 
-0.26231151357 -0.90614620612 0.33180072782 -0.28234896251 -0.91671035438 0.28270335961 -0.31960660695 -0.9167654183 0.23956791232 
-0.36861561652 -0.90880136982 0.19545484768 -0.42579083154 -0.89272269289 0.14747325647 -0.48768503476 -0.86790196316 0.094390090688 
-0.55077639098 -0.8338617346 0.036331456181 -0.61153293098 -0.79080938196 -0.025455760148 -0.66659526175 -0.7400770063 -0.089088617477 
-0.71317031694 -0.68420741617 -0.1524739673 -0.74930168049 -0.62675555413 -0.21383280146 -0.77394060448 -0.57183259952 -0.27207245151 
-0.78599652873 -0.52405117546 -0.32799363154 -0.78310465749 -0.48836663352 -0.38502613767 -0.75559424943 -0.47183246031 -0.45436929873 
-0.65350783913 -0.4898274192 -0.577058579 0.055919114552 -0.49859639577 -0.86502872019 0.98246666278 0.13278580498 -0.13087087728 
0.95431254655 0.28343003179 0.094630759183 0.92422012252 0.3503140562 0.15197771929 0.90014016597 0.40333964614 0.16451386405 
0.87809423235 0.45124515618 0.15914876102 0.85760326572 0.49289673975 0.14686538928 0.84048154985 0.52500320778 0.13402386423 
0.82949429402 0.54447201659 0.12445657614 0.82949429402 0.54447201659 0.12445657614 
FrenetBinormal 3 128 double
0.027352963118 -0.97094250748 0.23774453216 0.027352963118 -0.97094250748 0.23774453216 0.03437979737 -0.96880496164 0.24542814802 
0.045056244231 -0.96518698685 0.25765095627 0.058777248795 -0.95980450586 0.27444588822 0.07478065757 -0.95230974765 0.29582764878 
0.09213836125 -0.94235257192 0.32168641964 0.10981166263 -0.92963461595 0.3517397896 0.12672399699 -0.91396235862 0.38550465057 
0.14186544528 -0.89526421068 0.42234605303 0.15434107823 -0.87363875546 0.46144789146 0.16345569656 -0.8493375322 0.50190436505 
0.16874191158 -0.8228040232 0.54269669861 0.17000532868 -0.79472667652 0.58267289095 0.1673894325 -0.76608927687 0.62055458886 
0.16145516823 -0.73823930266 0.65493126407 0.15330155333 -0.71302118913 0.6841779137 0.1446313692 -0.69264033757 0.70663366027 
0.13780909751 -0.67960310349 0.7205194476 0.13566160596 -0.6761510026 0.72416555452 0.14106596006 -0.68356697469 0.71612609645 
0.15615421636 -0.70125123132 0.69560230828 0.1811231016 -0.72597456827 0.66344204592 0.21357406998 -0.75256195911 0.62292584979 
0.24873916565 -0.7757296316 0.57997617721 0.28116241541 -0.7923367358 0.54143346153 0.3064206703 -0.80203788123 0.51268080701 