# vtk DataFile Version 4.2
vtk output
ASCII
DATASET POLYDATA
POINTS 128 float
0 0 0 -0.288957 0.119912 0.122295 -0.866119 0.336359 0.357754 
-1.37042 0.470857 0.543334 -1.80861 0.52734 0.686635 -2.27689 0.55303 0.836744 
-2.76553 0.538072 0.99348 -3.24246 0.462481 1.14665 -3.70116 0.328921 1.29963 
-4.14189 0.146295 1.45866 -4.5613 -0.0785755 1.62462 -4.95605 -0.33916 1.79671 
-5.32862 -0.627126 1.97408 -5.68335 -0.934079 2.15566 -6.02493 -1.2544 2.33934 
-6.35807 -1.58371 2.52247 -6.68727 -1.91923 2.70134 -7.01681 -2.25898 2.87161 
-7.35006 -2.60212 3.02714 -7.68981 -2.94836 3.1607 -8.03722 -3.29803 3.26208 
-8.392 -3.65145 3.31926 -8.74853 -4.00737 3.31582 -9.0978 -4.36324 3.2348 
-9.42258 -4.71208 3.06807 -9.70304 -5.04536 2.81339 -9.92651 -5.3574 2.48426 
-10.0848 -5.64449 2.10096 -10.1794 -5.90875 1.68191 -10.2164 -6.15505 1.24394 
-10.2023 -6.38872 0.798135 -10.143 -6.61522 0.352513 -10.0437 -6.83955 -0.0869592 
-9.90855 -7.06645 -0.515415 -9.74115 -7.3002 -0.928446 -9.5447 -7.54494 -1.32178 
-9.32173 -7.80551 -1.69019 -9.07454 -8.08695 -2.02768 -8.8073 -8.39214 -2.32605 
-8.525 -8.72327 -2.57529 -8.2306 -9.08849 -2.76011 -7.92837 -9.49656 -2.85923 
-7.65225 -9.92148 -2.81964 -7.45305 -10.3142 -2.5764 -7.35811 -10.6129 -2.16339 
-7.37561 -10.754 -1.67787 -7.47744 -10.75 -1.17853 -7.61498 -10.6589 -0.69697 
-7.76393 -10.5124 -0.240349 -7.91597 -10.3241 0.199641 -8.06222 -10.1067 0.629518 
-8.19309 -9.87179 1.0547 -8.29673 -9.63215 1.48451 -8.35953 -9.40213 1.93054 
-8.36576 -9.2105 2.39733 -8.29946 -9.09534 2.8832 -8.16607 -9.07542 3.37208 
-7.98748 -9.15325 3.83782 -7.78414 -9.31547 4.27032 -7.57451 -9.53691 4.67248 
-7.36928 -9.80123 5.04833 -7.1727 -10.0997 5.4024 -6.98819 -10.4263 5.73797 
-6.81865 -10.7765 6.05714 -6.66636 -11.1471 6.36143 -6.53311 -11.5357 6.65186 
-6.41988 -11.9398 6.92943 -6.3269 -12.3567 7.19512 -6.25342 -12.7839 7.45043 
-6.19768 -13.2186 7.69735 -6.15701 -13.6583 7.93822 -6.12787 -14.1007 8.17565 
-6.10657 -14.5442 8.41193 -6.08937 -14.9874 8.64892 -6.07286 -15.4297 8.88789 
-6.05409 -15.8704 9.12944 -6.03022 -16.3093 9.37378 -5.99858 -16.7464 9.62072 
-5.95647 -17.1812 9.86989 -5.90117 -17.6137 10.1208 -5.82946 -18.0431 10.3728 
-5.73751 -18.4684 10.6251 -5.62118 -18.888 10.8772 -5.47596 -19.2993 11.1281 
-5.29787 -19.6989 11.377 -5.0837 -20.0825 11.6226 -4.83203 -20.4457 11.8639 
-4.54404 -20.7843 12.1 -4.22241 -21.0953 12.3307 -3.87188 -21.3773 12.5565 
-3.49738 -21.6296 12.7786 -3.1038 -21.8529 12.9988 -2.69558 -22.0479 13.219 
-2.27638 -22.2154 13.4412 -1.84944 -22.3558 13.6673 -1.41742 -22.4691 13.899 
-0.982813 -22.5551 14.1375 -0.547882 -22.6131 14.3837 -0.11475 -22.6429 14.638 
0.314672 -22.6444 14.9002 0.738838 -22.6181 15.1695 1.1569 -22.5657 15.4444 
1.56865 -22.4896 15.7232 1.97504 -22.3937 16.0037 2.37752 -22.2822 16.284 
2.77825 -22.1597 16.5622 3.17935 -22.0309 16.8369 3.58268 -21.9 17.1073 
3.98972 -21.7715 17.3733 4.40111 -21.6493 17.6355 4.81709 -21.5375 17.8953 
5.23714 -21.4406 18.1544 5.66037 -21.3632 18.4152 6.08502 -21.3112 18.6799 
6.50863 -21.291 18.9509 6.92702 -21.3107 19.2303 7.33388 -21.3791 19.5199 
7.71744 -21.5065 19.8207 8.06414 -21.7007 20.1322 8.35818 -21.9607 20.4492 
8.583 -22.2822 20.7659 8.72095 -22.6565 21.0789 8.76481 -23.0675 21.3823 
8.74365 -23.476 21.6607 8.67413 -23.8636 21.9111 8.49572 -24.31 22.1853 
8.20556 -24.8185 22.4892 8.04448 -25.0725 22.6397 
LINES 1 129
128 0 1 2 3 4 5 6 7 8 9 10 11 12 13 14 15 16 17 18 19 20 21 22 23 24 25 26 27 28 29 30 31 32 33 34 35 36 37 38 39 40 41 42 43 44 45 46 47 48 49 50 51 52 53 54 55 56 57 58 59 60 61 62 63 64 65 66 67 68 69 70 71 72 73 74 75 76 77 78 79 80 81 82 83 84 85 86 87 88 89 90 91 92 93 94 95 96 97 98 99 100 101 102 103 104 105 106 107 108 109 110 111 112 113 114 115 116 117 118 119 120 121 122 123 124 125 126 127 

CELL_DATA 1
FIELD FieldData 2
Length 1 1 double
57.442583186 
Tortuosity 1 1 double
0.65416308326 
POINT_DATA 128
SCALARS MaximumInscribedSphereRadius float
LOOKUP_TABLE default
1.581 1.42171 1.26243 1.13973 1.01997 1.07495 1.13254 1.1427 1.15009 
1.08284 1.01031 1.06028 1.1214 1.20222 1.28523 1.3675 1.44968 1.44409 
1.42481 1.27092 1.09284 1.09715 1.13863 1.31179 1.51489 1.46952 1.36233 
1.266 1.17261 1.10585 1.04698 1.05612 1.08735 1.14474 1.21141 1.34471 
1.50379 1.63529 1.75522 1.74808 1.68321 1.67377 1.69115 1.74674 1.82293 
1.86669 1.89494 1.95702 2.03625 2.01771 1.94608 1.84349 1.72277 1.71087 
1.76747 1.81058 1.84458 1.81456 1.73954 1.6125 1.44651 1.35409 1.32055 
1.31862 1.3438 1.343 1.31834 1.30104 1.29097 1.33143 1.42509 1.51671 
1.60603 1.68216 1.74232 1.73958 1.65511 1.54248 1.39059 1.32173 1.37732 
1.45379 1.56392 1.69683 1.86925 1.99424 2.03078 2.02234 1.92357 1.84468 
1.80887 1.78193 1.77579 1.80372 1.91855 2.02401 2.10339 2.16397 2.16738 
2.17 2.17 2.17 2.17 2.17 2.17 2.17 2.17 2.17 
2.17 2.15211 2.02773 1.88636 1.62777 1.41659 1.5915 1.77793 2.0774 
2.3339 2.07154 1.81694 1.67991 1.55 1.55 1.55 1.55 1.55 
1.55 1.55 
TEXTURE_COORDINATES TCoords 2 float
0 0 0.00787402 0 0.015748 0 0.023622 0 0.0314961 
0 0.0393701 0 0.0472441 0 0.0551181 0 0.0629921 0 
0.0708661 0 0.0787402 0 0.0866142 0 0.0944882 0 0.102362 
0 0.110236 0 0.11811 0 0.125984 0 0.133858 0 
0.141732 0 0.149606 0 0.15748 0 0.165354 0 0.173228 
0 0.181102 0 0.188976 0 0.19685 0 0.204724 0 
0.212598 0 0.220472 0 0.228346 0 0.23622 0 0.244094 
0 0.251969 0 0.259843 0 0.267717 0 0.275591 0 
0.283465 0 0.291339 0 0.299213 0 0.307087 0 0.314961 
0 0.322835 0 0.330709 0 0.338583 0 0.346457 0 
0.354331 0 0.362205 0 0.370079 0 0.377953 0 0.385827 
0 0.393701 0 0.401575 0 0.409449 0 0.417323 0 
0.425197 0 0.433071 0 0.440945 0 0.448819 0 0.456693 
0 0.464567 0 0.472441 0 0.480315 0 0.488189 0 
0.496063 0 0.503937 0 0.511811 0 0.519685 0 0.527559 
0 0.535433 0 0.543307 0 0.551181 0 0.559055 0 
0.566929 0 0.574803 0 0.582677 0 0.590551 0 0.598425 
0 0.606299 0 0.614173 0 0.622047 0 0.629921 0 
0.637795 0 0.645669 0 0.653543 0 0.661417 0 0.669291 
0 0.677165 0 0.685039 0 0.692913 0 0.700787 0 
0.708661 0 0.716535 0 0.724409 0 0.732283 0 0.740157 
0 0.748031 0 0.755906 0 0.76378 0 0.771654 0 
0.779528 0 0.787402 0 0.795276 0 0.80315 0 0.811024 
0 0.818898 0 0.826772 0 0.834646 0 0.84252 0 
0.850394 0 0.858268 0 0.866142 0 0.874016 0 0.88189 
0 0.889764 0 0.897638 0 0.905512 0 0.913386 0 
0.92126 0 0.929134 0 0.937008 0 0.944882 0 0.952756 
0 0.96063 0 0.968504 0 0.976378 0 0.984252 0 
0.992126 0 1 0 
FIELD FieldData 7
Curvature 1 128 double
0 0.034415898395 0.0640479451 0.09123351116 0.11475870593 0.13339356813 0.14609953189 0.15229224896 0.15204493129 
0.14613415458 0.13592647224 0.12317862343 0.10993656115 0.098548224898 0.091702482844 0.091982184046 0.10068528553 0.11731117495 
0.14040760181 0.16844059267 0.199768325 0.23218189441 0.26256897082 0.28700873028 0.30162145309 0.30393311998 0.2940017497 
0.27447036593 0.24938589348 0.22307736122 0.19922293367 0.1807484485 0.16995677251 0.16876176732 0.17863086308 0.20113997855 
0.2388802881 0.29693717061 0.38444361531 0.51509021417 0.70210642248 0.93484378751 1.1330028988 1.1596358785 0.98024854614 
0.71709087521 0.48431765989 0.31291797869 0.19239483234 0.10754014323 0.056743327715 0.066082931339 0.10894518487 0.15473150096 
0.19598291202 0.22801072704 0.24698331377 0.25132965587 0.24258735992 0.22475378817 0.20244111581 0.17933335962 0.15769721774 
0.13846266968 0.12161958615 0.10674166958 0.093219516363 0.080480146207 0.06809978342 0.055840487785 0.043575253874 0.031312410145 
0.01920960171 0.0084657303589 0.0096848569481 0.021049222526 0.0336073446 0.046530804106 0.059643946379 0.072835743596 0.08590103363 
0.098536724458 0.1103475859 0.12087173115 0.12964353994 0.13623793356 0.14040591098 0.14214649431 0.14166540717 0.13940053039 
0.13589316163 0.13172368988 0.12732973353 0.12302355158 0.11882986218 0.11462563706 0.11010492389 0.1049603575 0.098762844217 
0.091270055069 0.08234664539 0.071993679189 0.060213458986 0.047210843374 0.033123251857 0.01807008761 0.003192364062 0.015534537809 
0.033646703228 0.053316406756 0.074735059865 0.098302556482 0.12438659719 0.15317932535 0.18467101227 0.21810731479 0.25159169606 
0.28191475734 0.30442476529 0.31408321694 0.30733820144 0.28377258151 0.24638016574 0.19991363492 0.14905010656 0.097038066213 
0.045401608296 0 
Torsion 1 128 double
0 0 0.02236618602 0.028811956716 0.03357910847 0.035650401198 0.03392912283 0.026943284469 0.012602247491 
-0.012164079025 -0.051935256326 -0.11288300283 -0.20090296198 -0.31243719637 -0.41402687218 -0.44152919563 -0.37124202397 -0.25593225431 
-0.14945467298 -0.068684294372 -0.01078580241 0.031227762923 0.063202468412 0.089612932911 0.11391527181 0.13890783582 0.16726684402 
0.20133843972 0.24353548517 0.29562463315 0.35668636997 0.41966231346 0.46836683184 0.48228539742 0.45319558192 0.39267560046 
0.32045081315 0.24955912554 0.18435099099 0.12442572671 0.069696541047 0.021887192325 -0.01706759714 -0.050390684415 -0.084992670993 
-0.12556603909 -0.17737339349 -0.25857267097 -0.43115564417 -0.94778619487 -2.6168705186 -1.6761192747 -0.60016016606 -0.31572047198 
-0.21876997812 -0.18026559619 -0.16612866143 -0.16446002838 -0.16989046367 -0.17936431255 -0.18992482882 -0.19868618683 -0.20321956 
-0.2015474962 -0.19318583901 -0.17883320631 -0.1599619241 -0.13790219326 -0.11295667839 -0.082136675151 -0.036511216458 0.053903043414 
0.33737669968 2.1833323174 1.6763097507 0.30633421817 0.090505549386 0.031407172844 0.012671856512 0.0088226054385 0.011875937792 
0.017902042115 0.025756590527 0.035382310069 0.045705702697 0.056871704452 0.069179302329 0.082250729111 0.095884707907 0.10922057978 
0.12093830313 0.12965741202 0.13374189779 0.13168464463 0.1236016141 0.11005431235 0.092465065504 0.072635110475 0.052354031342 
0.032929859363 0.015123893688 0.00029792657807 -0.0098749355411 -0.011051763544 0.014050226826 0.18568154073 8.5346995929 0.29275601957 
-0.0090695034053 -0.062004246281 -0.079934219493 -0.08691354167 -0.090125652156 -0.090694811507 -0.0898371259 -0.088282933251 -0.085342266211 
-0.081440873194 -0.076456711778 -0.070414053062 -0.063606359806 -0.055604405944 -0.046957485707 -0.038117517748 -0.028807942652 -0.019910929995 
0 0 
Abscissas 1 128 double
0 0.50292662965 1.0058532593 1.5087780458 2.0117026841 2.5146295339 3.0175564168 3.5204854273 4.0234145616 
4.5263405959 5.0292664105 5.5321906875 6.0351148246 6.5380427003 7.0409709929 7.5438964607 8.0468215521 8.5497467112 
9.0526718809 9.5556023008 10.058533664 10.561461337 11.064388257 11.567313373 12.070238078 12.573161717 13.076085092 
13.579016869 14.08195092 14.584878359 15.08780384 15.590735995 16.093670318 16.596595593 17.099517655 17.602442993 
18.105369598 18.608296049 19.111222435 19.614147472 20.117071896 20.620010357 21.122955605 21.625885659 22.128807524 
22.631734725 23.13466448 23.637587403 24.140506865 24.64343601 25.146370413 25.649293654 26.152210355 26.655134357 
27.158062956 27.660988742 28.163912627 28.666839071 29.169767313 29.672695542 30.175623761 30.678546837 31.181465798 
31.684392128 32.187324778 32.690262545 33.193205011 33.696138546 34.199063304 34.701978711 35.204884273 35.707813646 
36.210769904 36.71370488 37.216614099 37.719535654 38.222473237 38.725400706 39.228314073 39.731226382 40.234137106 
40.737057947 41.239995093 41.74293437 42.245877341 42.748816819 43.251749784 43.754671804 44.257571843 44.760482942 
45.263418025 45.766348933 46.269270038 46.772192622 47.275118979 47.778048415 48.280986415 48.783919624 49.286838257 
49.789758887 50.292686186 50.795614905 51.298548868 51.801478437 52.304389982 52.807307545 53.310252779 53.813193905 
54.316113672 54.819035987 55.321973457 55.824907972 56.327822095 56.830736862 57.333656872 57.836577796 58.339507688 
58.84243896 59.345386888 59.848333613 60.351262119 60.854189049 61.357087274 61.85998628 62.362935025 62.865880941 
63.368791572 63.871702203 
ParallelTransportNormals 3 128 double
0.38094904351 0 0.92459603409 0.35646190321 0.0070436987966 0.93386053934 0.33197476291 0.014087397593 0.94312504459 
0.31835201287 0.015799686197 0.94775058901 0.30560318955 0.017083118536 0.95200297748 0.30666106027 0.017239546376 0.95166166972 
0.30792610905 0.01737906281 0.95125143068 0.32439146806 0.023154889575 0.94543925022 0.34174111772 0.029258613366 0.93931280733 
0.36187865961 0.040998377495 0.93097940311 0.38221386101 0.053137732733 0.92248952695 0.39595063852 0.063932646981 0.91586282137 
0.40908745093 0.074605317239 0.90940552554 0.41220569316 0.077398632235 0.90779240299 0.41420694778 0.079313464363 0.90671936565 
0.40349563241 0.068387013698 0.91222781127 0.39109042455 0.055749520146 0.91861320974 0.36064596465 0.024693206669 0.93107215994 
0.32738659669 -0.0092372439706 0.94447884841 0.26671771681 -0.07024280934 0.95667157089 0.20112331337 -0.13611380667 0.96864614217 
0.10517101756 -0.23435812323 0.95529213188 0.0030342344979 -0.33919750829 0.93677820181 -0.095834718005 -0.45214312498 0.87083184569 
-0.19396059426 -0.56693202824 0.79409976847 -0.25187446417 -0.65388744657 0.70097074764 -0.29978490227 -0.73391880431 0.60376270361 
-0.31707205548 -0.78306049114 0.52921644381 -0.32606941258 -0.82384027052 0.46080478293 -0.32552120107 -0.8465706688 0.41951277304 
-0.32214330414 -0.86395051411 0.38626010412 -0.31999976362 -0.87062582357 0.3735825948 -0.31825714254 -0.87382429575 0.36758790507 
-0.32313364587 -0.867735781 0.37718771355 -0.33036023229 -0.85834997351 0.39232426133 -0.34902840559 -0.8363838096 0.4200883741 
-0.37212326563 -0.8095503753 0.45273802201 -0.41294415384 -0.76118755395 0.49307016549 -0.46121070431 -0.70378150288 0.53662927369 
-0.54404033969 -0.59313431544 0.57092790032 -0.64257525805 -0.45829463722 0.60101861309 -0.76214721208 -0.25010836431 0.52044562686 
-0.89189191544 -0.0064543319061 0.38635967963 -0.94227111837 0.14043188401 0.17839458876 -0.94987745449 0.23516651134 -0.069386577776 
-0.93535014068 0.25754176863 -0.21985138445 -0.91022739738 0.24527842791 -0.32373062428 -0.89630632108 0.23462522868 -0.37532950469 
-0.88806031859 0.22478777158 -0.40044171142 -0.88990829302 0.22980792446 -0.39305951348 -0.89723856862 0.24289763139 -0.36802876 
-0.90792862936 0.27717299682 -0.29759898477 -0.92058727779 0.32386160434 -0.20056871242 -0.91209405327 0.36771534548 -0.051965426586 
-0.89028446324 0.40978436917 0.129106147 -0.85101112498 0.41506177162 0.28859035218 -0.79993152221 0.39546641445 0.43348054363 
-0.76125814139 0.36939590025 0.52863656117 -0.73130750341 0.3387727406 0.58882476887 -0.71153661967 0.3152270723 0.62732806714 
-0.69938447607 0.29697834594 0.64960192745 -0.69183219501 0.28443961679 0.66359218537 -0.68796085371 0.27647018848 0.67095367098 
-0.68609222073 0.27255420247 0.67453051106 -0.68594050803 0.27211322937 0.67486277748 -0.6864354582 0.27442155379 0.6734036898 
-0.68752402417 0.27925364534 0.67030019637 -0.68859436547 0.2856659702 0.66645899255 -0.68964679512 0.29363138534 0.66189274968 
-0.69045829716 0.30156138506 0.65747076815 -0.6910161217 0.30945409517 0.65320068228 -0.69140647057 0.31581490587 0.64976758705 
-0.69160773744 0.32044618396 0.64727946418 -0.6917017599 0.32263959853 0.6461051274 -0.69166598492 0.32188247748 0.64652086019 
-0.69139566276 0.31825321863 0.64856572047 -0.69082064687 0.310892845 0.65272693517 -0.68963333491 0.30035526276 0.65877892467 
-0.68759215112 0.28538693346 0.66746767676 -0.6841683854 0.26682858588 0.6783764023 -0.67867266562 0.24289019334 0.69261200701 
-0.67067035685 0.21574011525 0.70898997899 -0.65862810933 0.18341367481 0.72882086349 -0.64338241913 0.14986289928 0.74983277895 
-0.62258273121 0.1141894217 0.7728923175 -0.59987457397 0.080526067578 0.7952881163 -0.57360637827 0.050612376472 0.81644578198 
-0.5483425145 0.024580279667 0.83552561972 -0.5250956309 0.0063435126918 0.85043259626 -0.50481399361 -0.0085558704649 0.86308900481 
-0.49096279226 -0.016217799929 0.8708648295 -0.48032435056 -0.021947995606 0.87681226708 -0.47722970657 -0.023142337228 0.87846651626 
-0.47666600772 -0.023589842981 0.87875481695 -0.48255973434 -0.022131879943 0.87555805175 -0.49003348806 -0.020691785631 0.87140771277 
-0.50190162847 -0.01930138799 0.86460528514 -0.51423607168 -0.018299278976 0.85738675883 -0.52798893509 -0.018478283252 0.84890252537 
-0.54098748246 -0.018950391896 0.84077801027 -0.551465163 -0.020402033059 0.83385564654 -0.5604057237 -0.021712927567 0.82792975402 
-0.56367435948 -0.022504471241 0.82568080966 -0.56546732215 -0.022887084425 0.82444693475 -0.56120762168 -0.021592416595 0.82737649774 
-0.55617439004 -0.020044805046 0.83080137447 -0.54758357655 -0.017333868697 0.83650427078 -0.53922753378 -0.014736156087 0.84201776996 
-0.53209239212 -0.012727251958 0.84654632874 -0.52591348272 -0.010992835675 0.85046697431 -0.52542482416 -0.01089181406 0.85077011112 
-0.52627687837 -0.01091223063 0.8502229832 -0.53637987676 -0.011770573034 0.84380901212 -0.54814786833 -0.012234710313 0.83617238889 
-0.57347551997 -0.0094884515692 0.81857851919 -0.60048972772 -0.005232993742 0.79921352181 -0.64404353006 0.013822766776 0.76247955968 
-0.68788205524 0.035442803391 0.72409764363 -0.73515794231 0.088020472408 0.66582054086 -0.78090934238 0.14263308832 0.60689737735 
-0.80356680486 0.22807242625 0.53818725826 -0.82454359074 0.31301169862 0.4704048559 -0.81490484773 0.38884168054 0.41952192028 
-0.80492629717 0.46463027895 0.36873138919 -0.77334450034 0.53778792365 0.32381547122 -0.74410625275 0.60551685436 0.28223257023 
-0.74410625275 0.60551685436 0.28223257023 -0.74410625275 0.60551685436 0.28223257023 
FrenetTangent 3 128 double
-0.93449783426 0.10060151503 0.3414573662 -0.93449783426 0.10060151503 0.3414573662 -0.93645976984 0.076876272632 0.3422471887 
-0.93833994441 0.03954710632 0.34344457356 -0.93858336342 -0.0097640737787 0.3449143847 -0.9355420818 -0.068765109941 0.34645688452 
-0.92785901146 -0.13456116921 0.34780877878 -0.9148114832 -0.20387628592 0.34864654055 -0.8965125112 -0.27341112566 0.34858524585 
-0.87390343627 -0.34024633757 0.34716741472 -0.84854669335 -0.4021712359 0.34384125148 -0.82230060415 -0.45784773199 0.33793071881 
-0.79697932382 -0.506794357 0.32860833391 -0.77407621121 -0.54923501439 0.31487603627 -0.75458129621 -0.58587541358 0.29556228983 
-0.73887859106 -0.61766907973 0.26933870057 -0.72669747962 -0.64559868943 0.23476180549 -0.71708970209 -0.67048433204 0.19034999253 
-0.70841824876 -0.69281649282 0.13471782401 -0.69836637805 -0.71261667501 0.066797279207 -0.6840076834 -0.72934367857 -0.013830675002 
-0.66201153921 -0.74189025926 -0.10648739444 -0.62906574319 -0.74875087038 -0.2089220545 -0.58255591534 -0.74841218363 -0.31702966565 
-0.52136026142 -0.73993966573 -0.42505619499 -0.44641227266 -0.7235580451 -0.52647871579 -0.36065414642 -0.70090551692 -0.61535359186 
-0.26828734039 -0.6747804737 -0.68752688333 -0.17371299452 -0.64850240293 -0.74112645948 -0.080648920207 -0.62523961493 -0.77625458169 
0.0082984206075 -0.60756832103 -0.79422406882 0.091614296762 -0.59732218392 -0.79675154799 0.16862587795 -0.59564087944 -0.78535167665 
0.23920678374 -0.6030942903 -0.76095820623 0.30350544595 -0.61979680457 -0.72369632121 0.36172227793 -0.64547112222 -0.67269905904 
0.41390337717 -0.67941234612 -0.6058736323 0.45964854346 -0.72026520599 -0.51955870654 0.49762518133 -0.76540786105 -0.40806860349 
0.52465059624 -0.80952909192 -0.26344715068 0.53419638771 -0.8418723378 -0.076714967269 0.51511770377 -0.84280201728 0.15600804768 
0.45478773239 -0.78584241023 0.41907019073 0.35225638631 -0.65700225592 0.66653092502 0.22959485021 -0.47894678277 0.84728754507 
0.11720561938 -0.2965337355 0.94780303149 0.031883297857 -0.14076798893 0.98952909437 -0.024236786226 -0.020739684127 0.99949109235 
-0.055016635713 0.065459342046 0.9963374149 -0.064987377779 0.12216688256 0.99037967141 -0.057791947802 0.15293169187 0.98654548217 
-0.03619595426 0.15993446116 0.98646379611 -0.0025585549001 0.14433477822 0.98952560634 0.04061360393 0.10698025868 0.99343130584 
0.090185324539 0.049291358446 0.99470446326 0.14217369147 -0.025893374095 0.98950299375 0.19201552864 -0.11390439818 0.97475936766 
0.23532783348 -0.20866442056 0.94925232177 0.26882411479 -0.30385992146 0.91400368897 0.29088405452 -0.3942561007 0.87175030478 
0.30150093095 -0.47646441066 0.82588065361 0.30181170494 -0.54891952518 0.77948511829 0.29354587679 -0.61139523936 0.73486507572 
0.27861008042 -0.66443987905 0.69346670448 0.25887164986 -0.70892763922 0.65605416792 0.23606947754 -0.74580736105 0.62293063977 
0.21178783056 -0.77599130181 0.59412407319 0.18745672561 -0.80031740493 0.56951911942 0.16434819173 -0.81955186883 0.54893023798 
0.14356374411 -0.83440233026 0.53212987384 0.12603659365 -0.84552106216 0.51885345763 0.11253625706 -0.85349734655 0.50880042284 
0.10367576891 -0.85884425459 0.5016352074 0.099932962862 -0.86198575181 0.49698487564 0.10167403303 -0.86323936559 0.49444937931 
0.10917427458 -0.8628001167 0.49361618328 0.12263164348 -0.86073157533 0.49406743998 0.14216861813 -0.85695232991 0.49539962483 
0.16781636289 -0.8512328562 0.49723263456 0.19949141816 -0.84320190516 0.49921310201 0.2369567318 -0.83236366097 0.5010212003 
0.27976536359 -0.81813419902 0.50238209934 0.3272214758 -0.79990525831 0.50306826923 0.37835755836 -0.77712121919 0.5029196444 
0.43194609322 -0.74935764593 0.50188214855 0.486557004 -0.71641556133 0.50001102522 0.54065897361 -0.67837790025 0.49748497334 
0.59275860392 -0.63560923112 0.49460908078 0.64153197851 -0.58871918004 0.49177886046 0.68592389001 -0.53848022662 0.48943586163 
0.72520293224 -0.48572905257 0.48800409277 0.75896368722 -0.43127664874 0.48782637662 0.78708014405 -0.37585232084 0.48912153884 
0.80964677619 -0.32008526281 0.49195276434 0.82692114725 -0.26452845296 0.49621176306 0.83927451216 -0.2097017859 0.50164076212 
0.84717183102 -0.15613454228 0.50786011208 0.85116391891 -0.10439442036 0.51441402406 0.85188119416 -0.055120697344 0.52082640078 
0.8500269777 -0.0090262876738 0.52666181114 0.84635731097 0.033149785591 0.53158291346 0.84164425131 0.070677744829 0.53538734635 
0.83662400392 0.10284773787 0.53803588995 0.83194253754 0.12900369701 0.53965698401 0.82809973725 0.14856604542 0.54053580392 
0.82540827323 0.16100176913 0.54109113172 0.82395521406 0.16582486354 0.54184861341 0.82357718183 0.1625674612 0.54340817635 
0.82385268597 0.15076577548 0.54638487604 0.82407800137 0.12993785142 0.55137247159 0.82323679506 0.099584465243 0.55889544061 
0.81997132146 0.059230818442 0.56933183832 0.81254870889 0.0084683171871 0.58283177957 0.79882410219 -0.052901376467 0.59923409293 
0.77626920645 -0.12468903756 0.61794721703 0.74210393497 -0.20603821907 0.63783226791 0.69363369754 -0.29502585756 0.6571392828 
0.62889306686 -0.38836811088 0.67354563387 0.54752477302 -0.48135920791 0.68447785639 0.45168506783 -0.56833804581 0.68772993622 
0.34639917774 -0.64384781568 0.68225185959 0.23890043524 -0.70408438427 0.66872398033 0.13706940608 -0.7479177433 0.64948520166 
0.047761707698 -0.77683433102 0.62789110634 -0.024167889439 -0.79400376977 0.60743224043 -0.075926949104 -0.80306026978 0.5910408628 
-0.10625731756 -0.80709386501 0.58078298487 -0.10625731756 -0.80709386501 0.58078298487 
FrenetNormal 3 128 double
-0.095307336746 -0.99492398437 0.032292055985 -0.095307336746 -0.99492398437 0.032292055985 -0.070241516929 -0.9970243452 0.03175821735 
-0.031003217302 -0.9990588567 0.030334820895 0.020570102561 -0.99940506606 0.02768365621 0.081891526499 -0.99636714588 0.023372815543 
0.14964286828 -0.98859848162 0.016734817031 0.21996239751 -0.97548514705 0.0067284142717 0.28869687362 -0.95738343071 -0.0084310003438 
0.35166764203 -0.93558788489 -0.031704561097 0.40468199196 -0.91193018485 -0.067939850885 0.44307376725 -0.88777568099 -0.12465944415 
0.46060528091 -0.86188525988 -0.21212395903 0.44823913398 -0.8266993199 -0.34007339391 0.39689747121 -0.76616637392 -0.50543197842 
0.31097531965 -0.66716444556 -0.67689434416 0.21977955979 -0.54227570528 -0.81094636356 0.15660390362 -0.42112017067 -0.89338290739 
0.13420660449 -0.31962112604 -0.93799302934 0.14941635185 -0.23642299544 -0.96009318351 0.19464490665 -0.16420779704 -0.96703110586 
0.2626413773 -0.096562043588 -0.96004962302 0.34695297473 -0.029932119595 -0.93740476932 0.44131202984 0.036298149936 -0.89661928188 
0.53962250209 0.099990893254 -0.83594819008 0.63625171516 0.15704794125 -0.75532754426 0.72679621321 0.20229320027 -0.65638763363 
0.80852204062 0.23029772984 -0.54153029967 0.87976469829 0.23598776122 -0.41270310419 0.93859275248 0.21447584525 -0.27026608518 
0.98031903303 0.16161076562 -0.11338674487 0.9954545915 0.075841567047 0.057603931883 0.97084067004 -0.037369162975 0.23679514154 
0.8976258784 -0.16144937572 0.41012422692 0.78171274784 -0.2723057493 0.56104791129 0.64272949585 -0.35001865963 0.68145853365 
0.50058354217 -0.38602607731 0.7748548154 0.36561970114 -0.37967553754 0.84980510727 0.23868301323 -0.33145945515 0.91277875128 
0.11475842363 -0.23938178835 0.9641197351 -0.013011782607 -0.098925908615 0.99500972765 -0.14862840066 0.091425294925 0.98465781567 
-0.28459279876 0.31764292182 0.90449428584 -0.39765551388 0.53962871425 0.74207206054 -0.46350672736 0.71168198783 0.52789228246 
-0.47760743482 0.81993555274 0.31558965059 -0.44956898311 0.88220835829 0.13998622072 -0.38455892591 0.92304812328 0.0098282557069 
-0.26691987123 0.96056931542 -0.077848395069 -0.018905087735 0.99214882885 -0.12362564082 0.62129530664 0.77902148033 -0.084366315148 
0.98592010904 -0.15553902608 0.061393403118 0.8224664549 -0.56254990016 0.084181591785 0.70022935241 -0.71229719304 0.048078714762 
0.60958511838 -0.7925592566 -0.015994006176 0.52869604737 -0.84313175729 -0.098027186717 0.44698831548 -0.87408728705 -0.19019164137 
0.35962584686 -0.88866670647 -0.2845008525 0.26515197872 -0.88892418713 -0.37350798883 0.1638879801 -0.8771505053 -0.45138422771 
0.05695969044 -0.85564022556 -0.51442725246 -0.053419875237 -0.82606489289 -0.56103752964 -0.16449282762 -0.78957094129 -0.59120202835 
-0.27258617478 -0.74707104267 -0.60628510993 -0.37388330685 -0.69980493335 -0.6086742381 -0.46499169786 -0.64959071318 -0.60151028776 
-0.54383574134 -0.59867505041 -0.5880738648 -0.60937165251 -0.54949127342 -0.57159909863 -0.66168217121 -0.50431520758 -0.5548358998 
-0.70059655914 -0.46545862344 -0.54084446118 -0.72428014374 -0.43583224164 -0.53429255145 -0.72500489099 -0.42068765885 -0.54533457779 
-0.66775611117 -0.43388942968 -0.60484852551 -0.25521161536 -0.50498102683 -0.82453695728 0.94205859995 -0.076163701924 -0.32668744202 
0.99267691297 0.12046457859 -0.0089906481023 0.98310139221 0.17353049415 0.058299401716 0.97647613099 0.20339018794 0.071601655465 
0.97084018284 0.23029359815 0.06658977426 0.96407550467 0.26007572252 0.054028139415 0.95477710041 0.2948478097 0.038281296266 
0.94184460853 0.33535177564 0.021631457443 0.92445711091 0.3812545539 0.0049005322507 0.90175905491 0.43210624993 -0.010714273218 
0.87303596571 0.48705706756 -0.024158135685 0.83790278622 0.54470207102 -0.03490808893 0.79601904368 0.60383303532 -0.041705485892 
0.74734445596 0.66300214486 -0.043639661456 0.69199115511 0.72080703964 -0.039817745489 0.63023611266 0.77583641881 -0.029669741285 
0.56259845795 0.82662354939 -0.013284679362 0.48992181805 0.87172542468 0.0084496257289 0.41338997446 0.90991952196 0.033988123877 
0.33482523225 0.94031910663 0.060762172017 0.25641974988 0.96273941004 0.085917054298 0.18035565031 0.97776515605 0.10699130342 
0.10879876936 0.98657140912 0.12181823551 0.043315789269 0.99064992481 0.12936950516 -0.01489696307 0.99149376203 0.12929887994 
-0.065219455241 0.99035577 0.12223694816 -0.10722183182 0.98823262032 0.10908605282 -0.14079465893 0.98583009541 0.091191485389 
-0.16636524929 0.98352737416 0.070685982321 -0.18487581452 0.98146923524 0.050389219851 -0.19998863318 0.97908873225 0.037280034695 
-0.22762533928 0.97201950245 0.05800682524 -0.52926899165 0.5667865511 0.6313694164 0.0096250492108 -0.96191438254 0.27318140326 
0.025991484552 -0.97300984282 0.22929519947 -0.0025550207986 -0.97247467334 0.23299459561 -0.04808296015 -0.96872512464 0.24343307465 
-0.10523218908 -0.96208035878 0.25164969628 -0.17205737227 -0.95185688348 0.25370205758 -0.24798298616 -0.93650858128 0.24790344042 
-0.33159922446 -0.91443885587 0.23204209362 -0.42167742801 -0.88319529107 0.2053149399 -0.51568527059 -0.8403347214 0.16705166175 
-0.60973717278 -0.78387089837 0.11733283778 -0.69906010943 -0.71270867289 0.057976814177 -0.77808841819 -0.62810340988 -0.0080324329387 
-0.84222787445 -0.53372915378 -0.076061803157 -0.88894165933 -0.43571747874 -0.14118429456 -0.918524237 -0.34143656735 -0.19933463452 
-0.93412666268 -0.25735096523 -0.24734158316 -0.93999091625 -0.18880740599 -0.28419859396 -0.94062428802 -0.13899300068 -0.30968838296 
-0.93948206443 -0.10983356258 -0.32451508309 -0.93948206443 -0.10983356258 -0.32451508309 
FrenetBinormal 3 128 double
0.34297275303 -0.0023665358034 0.93934237112 0.34297275303 -0.0023665358034 0.93934237112 0.34367023259 0.0057003312109 0.93907309484 
0.34432099739 0.017816487407 0.93868291959 0.34443887817 0.033078343426 0.93822581632 0.34359102297 0.050238135651 0.93777467371 
0.34159137406 0.067574654058 0.93741612921 0.33872775777 0.082844359583 0.93723013087 0.33603486786 0.093076973377 0.93723916084 
0.33559298804 0.094380821236 0.93726709478 0.34088266982 0.081496226752 0.93656679978 0.3570817178 0.047220700416 0.93287879827 
0.3907259047 -0.017699675479 0.9203368888 0.44708802044 -0.12210296248 0.88611690455 0.52257005726 -0.264081592 0.81066728565 
0.59778991146 -0.4163850508 0.68503336505 0.65085153315 -0.53771683224 0.53595978405 0.67915946326 -0.61082613103 0.40698140145 
0.69291570348 -0.64641135747 0.31940598741 0.69997082497 -0.66051619338 0.27158645486 0.70302691937 -0.66414877695 0.25428242709 
0.7019688233 -0.6635319246 0.2587762666 0.695629157 -0.66217535618 0.27861061287 0.68254838497 -0.66223987173 0.30913759795 
0.66105297296 -0.66520005438 0.34715681557 0.62920571976 -0.67216047155 0.39025691884 0.58454756105 -0.68396558208 0.43645759405 