# vtk DataFile Version 4.2
vtk output
ASCII
DATASET POLYDATA
POINTS 128 float
0 0 0 -0.2935 0.00801181 0.168597 -0.875235 0.0352641 0.48109 
-1.37845 0.0844 0.701282 -1.81525 0.147907 0.843153 -2.28349 0.216413 0.976191 
-2.77802 0.285173 1.09711 -3.27214 0.350082 1.18802 -3.76562 0.404319 1.25284 
-4.26451 0.440427 1.30057 -4.76729 0.451768 1.33372 -5.27025 0.432098 1.35349 
-5.77027 0.375924 1.36455 -6.26424 0.278686 1.37258 -6.74818 0.139537 1.38262 
-7.2181 -0.0406002 1.3992 -7.67166 -0.257824 1.4253 -8.10733 -0.507189 1.46308 
-8.525 -0.783766 1.51305 -8.92511 -1.08279 1.57511 -9.30843 -1.40047 1.6489 
-9.6759 -1.73353 1.73406 -10.0283 -2.07962 1.83043 -10.3664 -2.43668 1.93826 
-10.6899 -2.80246 2.05967 -10.9983 -3.17471 2.19778 -11.2908 -3.55223 2.35704 
-11.566 -3.93219 2.54513 -11.8142 -4.2957 2.79011 -12.0234 -4.61508 3.12456 
-12.1914 -4.85196 3.54037 -12.3234 -4.97081 4.00915 -12.4468 -5.00256 4.49932 
-12.5961 -5.00754 4.98076 -12.7754 -5.01466 5.45037 -12.9673 -5.03615 5.9195 
-13.1086 -5.0849 6.40033 -13.1169 -5.17258 6.90039 -12.9652 -5.29362 7.37337 
-12.6651 -5.43318 7.74851 -12.27 -5.58738 8.03055 -11.8516 -5.75863 8.26332 
-11.439 -5.9523 8.47262 -11.036 -6.17536 8.67263 -10.6508 -6.43303 8.87079 
-10.2948 -6.72919 9.07027 -9.97834 -7.06532 9.27227 -9.7116 -7.44096 9.47646 
-9.50057 -7.85175 9.67913 -9.34812 -8.29067 9.87431 -9.25124 -8.75084 10.0557 
-9.20263 -9.22567 10.2169 -9.19311 -9.71071 10.3521 -9.21212 -10.2032 10.4558 
-9.24884 -10.7009 10.5227 -9.29223 -11.2021 10.5474 -9.33104 -11.7038 10.5261 
-9.35403 -12.2022 10.4561 -9.3519 -12.6922 10.3385 -9.31721 -13.1683 10.1776 
-9.24662 -13.6266 9.98045 -9.14041 -14.0651 9.75673 -9.00105 -14.4844 9.51539 
-8.83292 -14.8873 9.26474 -8.64063 -15.2778 9.01219 -8.42889 -15.6611 8.76426 
-8.20261 -16.0431 8.52739 -7.96694 -16.43 8.30818 -7.73036 -16.8311 8.11719 
-7.50488 -17.258 7.96915 -7.30644 -17.7141 7.87996 -7.1546 -18.1934 7.86609 
-7.0545 -18.6844 7.92852 -6.99469 -19.1709 8.05074 -6.95968 -19.645 8.21615 
-6.93042 -20.1089 8.40928 -6.89099 -20.5642 8.61978 -6.8296 -21.0109 8.84359 
-6.73513 -21.446 9.07883 -6.59707 -21.863 9.32591 -6.40755 -22.2524 9.58447 
-6.16226 -22.6013 9.85283 -5.86279 -22.9004 10.1274 -5.51852 -23.1459 10.4022 
-5.13947 -23.339 10.6722 -4.73565 -23.4875 10.9344 -4.31499 -23.5998 11.187 
-3.88225 -23.6842 11.4299 -3.44094 -23.748 11.6631 -2.99296 -23.7969 11.887 
-2.53968 -23.8355 12.102 -2.08172 -23.8663 12.3081 -1.61952 -23.8905 12.5055 
-1.15331 -23.9083 12.6939 -0.683297 -23.9188 12.8732 -0.209683 -23.9202 13.0431 
0.267152 -23.9102 13.2035 0.746481 -23.8859 13.3546 1.22726 -23.8445 13.4974 
1.70788 -23.7838 13.6336 2.18662 -23.7021 13.7654 2.66162 -23.5995 13.8961 
3.1312 -23.4766 14.0289 3.59405 -23.3356 14.1671 4.04919 -23.1791 14.314 
4.49619 -23.0106 14.4721 4.93477 -22.8335 14.6439 5.36494 -22.6517 14.8313 
5.78663 -22.4692 15.0365 6.19958 -22.2899 15.2614 6.60331 -22.1182 15.508 
6.99685 -21.9588 15.7784 7.37884 -21.8171 16.0742 7.74697 -21.6995 16.3969 
8.09839 -21.6128 16.7473 8.4292 -21.5638 17.124 8.73557 -21.5592 17.5243 
9.01447 -21.6051 17.9416 9.26378 -21.7052 18.3684 9.48368 -21.856 18.7955 
9.67639 -22.0552 19.214 9.84932 -22.3098 19.6164 10.0081 -22.6184 19.9944 
10.1483 -22.9452 20.3358 10.2734 -23.2785 20.6358 10.4234 -23.7254 20.921 
10.6082 -24.3002 21.1893 10.7038 -24.601 21.313 
LINES 1 129
128 0 1 2 3 4 5 6 7 8 9 10 11 12 13 14 15 16 17 18 19 20 21 22 23 24 25 26 27 28 29 30 31 32 33 34 35 36 37 38 39 40 41 42 43 44 45 46 47 48 49 50 51 52 53 54 55 56 57 58 59 60 61 62 63 64 65 66 67 68 69 70 71 72 73 74 75 76 77 78 79 80 81 82 83 84 85 86 87 88 89 90 91 92 93 94 95 96 97 98 99 100 101 102 103 104 105 106 107 108 109 110 111 112 113 114 115 116 117 118 119 120 121 122 123 124 125 126 127 

CELL_DATA 1
FIELD FieldData 2
Length 1 1 double
59.581494088 
Tortuosity 1 1 double
0.7388928094 
POINT_DATA 128
SCALARS MaximumInscribedSphereRadius float
LOOKUP_TABLE default
0.93 1.05526 1.18052 1.30136 1.42197 1.44456 1.46532 1.40217 1.33417 
1.26486 1.19545 1.12484 1.05412 1.07418 1.10424 1.2727 1.45921 1.64734 
1.83571 1.84849 1.83076 1.7551 1.66803 1.61516 1.56984 1.56376 1.56734 
1.51297 1.44279 1.24747 1.01462 0.872694 0.758748 0.746012 0.768969 0.8252 
0.893666 0.922723 0.934045 0.944689 0.955088 0.975624 1.0006 1.04212 1.09133 
1.1454 1.20193 1.232 1.24783 1.25899 1.26745 1.3145 1.38539 1.48817 
1.61203 1.71978 1.81611 1.85827 1.85947 1.86 1.86 1.86 1.86 
1.86034 1.86099 1.88192 1.92275 1.97985 2.05399 2.08592 2.07047 2.02538 
1.94476 1.83614 1.69213 1.5465 1.39867 1.29679 1.26147 1.24142 1.24503 
1.25638 1.28056 1.30374 1.32516 1.32374 1.27892 1.21666 1.11874 1.05256 
1.05647 1.09277 1.20642 1.31946 1.43089 1.52468 1.56876 1.60836 1.63423 
1.6638 1.70586 1.74921 1.79733 1.85154 1.93082 2.01788 2.14065 2.25721 
2.34174 2.40894 2.37469 2.33796 2.28459 2.23901 2.25466 2.27572 2.34728 
2.41736 2.47064 2.52303 2.56248 2.60009 2.60524 2.6097 2.57809 2.5464 
2.5132 2.48 
TEXTURE_COORDINATES TCoords 2 float
0 0 0.00787402 0 0.015748 0 0.023622 0 0.0314961 
0 0.0393701 0 0.0472441 0 0.0551181 0 0.0629921 0 
0.0708661 0 0.0787402 0 0.0866142 0 0.0944882 0 0.102362 
0 0.110236 0 0.11811 0 0.125984 0 0.133858 0 
0.141732 0 0.149606 0 0.15748 0 0.165354 0 0.173228 
0 0.181102 0 0.188976 0 0.19685 0 0.204724 0 
0.212598 0 0.220472 0 0.228346 0 0.23622 0 0.244094 
0 0.251969 0 0.259843 0 0.267717 0 0.275591 0 
0.283465 0 0.291339 0 0.299213 0 0.307087 0 0.314961 
0 0.322835 0 0.330709 0 0.338583 0 0.346457 0 
0.354331 0 0.362205 0 0.370079 0 0.377953 0 0.385827 
0 0.393701 0 0.401575 0 0.409449 0 0.417323 0 
0.425197 0 0.433071 0 0.440945 0 0.448819 0 0.456693 
0 0.464567 0 0.472441 0 0.480315 0 0.488189 0 
0.496063 0 0.503937 0 0.511811 0 0.519685 0 0.527559 
0 0.535433 0 0.543307 0 0.551181 0 0.559055 0 
0.566929 0 0.574803 0 0.582677 0 0.590551 0 0.598425 
0 0.606299 0 0.614173 0 0.622047 0 0.629921 0 
0.637795 0 0.645669 0 0.653543 0 0.661417 0 0.669291 
0 0.677165 0 0.685039 0 0.692913 0 0.700787 0 
0.708661 0 0.716535 0 0.724409 0 0.732283 0 0.740157 
0 0.748031 0 0.755906 0 0.76378 0 0.771654 0 
0.779528 0 0.787402 0 0.795276 0 0.80315 0 0.811024 
0 0.818898 0 0.826772 0 0.834646 0 0.84252 0 
0.850394 0 0.858268 0 0.866142 0 0.874016 0 0.88189 
0 0.889764 0 0.897638 0 0.905512 0 0.913386 0 
0.92126 0 0.929134 0 0.937008 0 0.944882 0 0.952756 
0 0.96063 0 0.968504 0 0.976378 0 0.984252 0 
0.992126 0 1 0 
FIELD FieldData 7
Curvature 1 128 double
0 0.017837598259 0.032694697245 0.045678568098 0.056516058604 0.065409837329 0.072968383305 0.079993848847 0.087182641528 
0.094853056106 0.10284544927 0.11062538638 0.11747535462 0.12271256233 0.12585107322 0.12671382591 0.12545630418 0.12258505751 
0.11889900724 0.11549123512 0.11371871596 0.11509181718 0.12102600131 0.13230073228 0.14869590898 0.16874167784 0.18979881472 
0.20841367609 0.2212063869 0.22620114203 0.22407698285 0.21846221941 0.21504820775 0.21941863114 0.23405762436 0.25617887398 
0.27815158549 0.29046020979 0.28627691024 0.265244663 0.23361852388 0.20083034407 0.17557195917 0.1629231494 0.16267659655 
0.17018329076 0.1797164935 0.18686650001 0.18915625831 0.18591721124 0.17810568929 0.16769560121 0.15703884635 0.14818382674 
0.14223746296 0.13902947107 0.13715366444 0.13466040312 0.12962890034 0.12076624115 0.10767749574 0.090902053117 0.072270794305 
0.055941727438 0.050459326505 0.062124824574 0.084802597955 0.11074525109 0.13518996057 0.15460350243 0.16641972475 0.16957082101 
0.16504748102 0.1558648523 0.14637392253 0.14101090893 0.14269636664 0.15140796418 0.16470525332 0.17890104797 0.19055287929 
0.19701549217 0.19686108729 0.19010692063 0.17795996502 0.16230880253 0.14515991143 0.12817770862 0.11263631367 0.099187312991 
0.088142652445 0.079528994974 0.073040646373 0.068360996089 0.065124437854 0.062899307136 0.061386813439 0.060223579682 0.05914942473 
0.057982757865 0.056669386995 0.05536874017 0.054435829011 0.054475055826 0.056199198568 0.060183136333 0.06680384018 0.076000940257 
0.087514242356 0.10093935406 0.11581642424 0.13164543565 0.14779462469 0.16357267091 0.17808326006 0.19040593846 0.19956947874 
0.20467326523 0.20496966747 0.19993059637 0.18922263693 0.17295605746 0.15151308089 0.12552216258 0.095984006298 0.063910099437 
0.030340331918 0 
Torsion 1 128 double
0 0 0.11024747276 0.15477975992 0.20230949507 0.2486698968 0.28743029346 0.31122777586 0.31558504632 
0.30211938005 0.27728601271 0.24869775241 0.22227474157 0.20142374268 0.1881208352 0.18377993676 0.18995505245 0.20829404954 
0.23979437221 0.28273438949 0.32928547454 0.36381378305 0.36907115122 0.33905146717 0.28346621067 0.21709519524 0.148934487 
0.080161675753 0.0067490738718 -0.077718954352 -0.17891907238 -0.29390014356 -0.4002145977 -0.45760998163 -0.44523469503 -0.38941856466 
-0.33218032509 -0.29833893748 -0.2967205548 -0.33098820093 -0.40270844406 -0.50273908563 -0.58889034816 -0.58893919995 -0.48246676338 
-0.33085909472 -0.19003319602 -0.074664239352 0.021461649532 0.10733733222 0.18900929415 0.26799233806 0.33895358063 0.39032888078 
0.41101302537 0.39946705358 0.36759652716 0.33156783827 0.30461080345 0.29744280449 0.32291688156 0.40762313659 0.61431599977 
1.0295318109 1.3081721226 0.88983148174 0.47188807453 0.24840351308 0.12256450288 0.036718804513 -0.035986696494 -0.11039314941 
-0.19591170247 -0.29533087204 -0.39592063131 -0.46217779437 -0.45748307223 -0.38933600956 -0.29952018788 -0.21973239861 -0.15962262267 
-0.11820751255 -0.091252699556 -0.074919574772 -0.066483144832 -0.063643067716 -0.064241019513 -0.065904092071 -0.065691927604 -0.060215377483 
-0.045307434744 -0.019257229415 0.016993393809 0.060758029633 0.10587868745 0.14872833273 0.18670135381 0.22090184015 0.25341655207 
0.2876553009 0.32822097695 0.3755606948 0.42613774264 0.46964128151 0.48980803218 0.47455812778 0.42943140366 0.37019838368 
0.31187356658 0.26274772806 0.22479064515 0.1973598961 0.17847864443 0.16659752741 0.15993477253 0.15647207092 0.1545060178 
0.15220228333 0.1482696511 0.14125589809 0.13047823359 0.11639115186 0.099523298636 0.080927766856 0.061388065199 0.042380485233 
0 0 
Abscissas 1 128 double
0 0.50311624117 1.0062324823 1.509347477 2.0124624055 2.5155830442 3.0187037893 3.5218167996 4.0249293628 
4.5280452878 5.0311614461 5.5342810752 6.0374010193 6.5405182557 7.0436351945 7.5467478115 8.0498598653 8.552976887 
9.0560946612 9.55921124 10.062327611 10.565446073 11.068564947 11.571671765 12.074775917 12.577888326 13.08100277 
13.584128948 14.087258325 14.590373104 15.093483507 15.596601913 16.099722783 16.602837757 17.105950652 17.60906598 
18.112182202 18.615303852 19.118427944 19.621545026 20.124659566 20.627773418 21.130886967 21.633985354 22.137076702 
22.640188928 23.143311644 23.646429821 24.149545553 24.652661036 25.155776376 25.658898106 26.162023783 26.665138829 
27.168246845 27.67136038 28.174477821 28.677591738 29.180702991 29.683824438 30.186954105 30.690085575 31.193218596 
31.696341777 32.199455919 32.70257214 33.205690404 33.70880012 34.211900872 34.715009109 35.218125745 35.721237995 
36.224344986 36.727461428 37.230589806 37.733715093 38.236836197 38.73994951 39.243051535 39.746154478 40.249258843 
40.752372861 41.255502864 41.758632953 42.261763194 42.764887053 43.267998787 43.771110045 44.274220331 44.777332724 
45.280449771 45.783569339 46.286694928 46.789817386 47.292931736 47.796045797 48.299159046 48.802272539 49.305386782 
49.808499523 50.311607201 50.814720029 51.317851984 51.820979854 52.324090927 52.827202021 53.330313213 53.833424417 
54.33653569 54.839646904 55.342757776 55.845872085 56.349009533 56.852145089 57.355265778 57.858386925 58.361512346 
58.864635973 59.367739314 59.870842914 60.373950295 60.87705663 61.38014441 61.883233449 62.386389002 62.889542551 
63.392658331 63.89577411 
ParallelTransportNormals 3 128 double
0.48054759529 0 0.87696864748 0.42029891833 0.0049776681761 0.9048044419 0.36005024137 0.0099553363522 0.93264023632 
0.30857115156 0.016609572276 0.94957312864 0.25755795726 0.023352878003 0.96592679036 0.20856973845 0.029755783057 0.97620849162 
0.15961925644 0.036152344512 0.98637703776 0.12080428529 0.03943562161 0.99113585424 0.082575032297 0.042538986002 0.99558204938 
0.054928937927 0.042252504145 0.99722692334 0.028017160749 0.041730816291 0.99867742638 0.018253937611 0.040440015734 0.99898029171 
0.010046789071 0.039079425227 0.9991790194 0.017965598794 0.041947784515 0.99890538397 0.027657339067 0.045281085741 0.99857981569 
0.045054560393 0.054320821637 0.99728758297 0.063456040772 0.064104279909 0.99586936441 0.082174797854 0.076973062507 0.99337150297 
0.10094161404 0.090309190857 0.99071010394 0.1182072171 0.10495685035 0.98716314234 0.13521205051 0.1198323306 0.98346235325 
0.15239003641 0.13706781583 0.97844815602 0.16960212219 0.15476806982 0.97317530209 0.19191152778 0.18065908104 0.96391908982 
0.21534779411 0.20836081691 0.95378227946 0.25692125383 0.2635325224 0.9261451747 0.30296439466 0.32547385326 0.89419534449 
0.38474864854 0.44222583698 0.7841175492 0.47627723531 0.57392120667 0.65273921694 0.54726037441 0.65542611529 0.4795133385 
0.61208291902 0.72188131158 0.29373938782 0.62852529401 0.73777132542 0.24621773238 0.63007767299 0.73809886043 0.24124607503 
0.62806546502 0.73780071473 0.2471528958 0.62479622652 0.73728192641 0.25689594763 0.6265272049 0.75072937016 0.17690933238 
0.63009660547 0.76931175733 0.063931946192 0.58394422678 0.80067266836 -0.046605143413 0.51541473691 0.83778450894 -0.15604398616 
0.49431788987 0.84890301962 -0.18705562384 0.49041747809 0.85059779619 -0.18963392379 0.52361835324 0.83215798396 -0.17268846846 
0.57306752604 0.80490034304 -0.14719269552 0.63719257912 0.75654746992 -0.11178359792 0.70813148144 0.6984003133 -0.071771853088 
0.77736303345 0.61709076025 -0.024386651994 0.84573684606 0.52414487246 0.026702829246 0.8959660154 0.42145517378 0.075921279853 
0.93641664126 0.31351432316 0.1241313913 0.95862721991 0.21548836457 0.16170207729 0.97031290147 0.1231835106 0.19313358738 
0.97403154089 0.050457345543 0.21306372305 0.97282871038 -0.010174503045 0.22588913057 0.9713187761 -0.04856091404 0.23173406103 
0.96960574672 -0.072235883267 0.23296263449 0.96921199356 -0.073527571821 0.23460825229 0.96975203553 -0.05897618041 0.2365490577 
0.96820458284 -0.028668011112 0.24520636753 0.96507834996 0.013557069393 0.25894339527 0.95738740722 0.05916958679 0.2782979177 
0.94601487264 0.10751418581 0.30218313829 0.93198202893 0.15149297937 0.3263272377 0.91566056353 0.19171593984 0.35069404647 
0.89961093497 0.22625760645 0.37199057388 0.88381106828 0.2555793382 0.39046614729 0.87103558549 0.27854669562 0.40417782117 
0.86123003007 0.29527409445 0.41321137346 0.85775986379 0.30073654975 0.41685115034 0.86093415893 0.29438450068 0.41483401618 
0.86686094021 0.27735318559 0.41346687802 0.87587630746 0.24833858363 0.41282910537 0.88138263894 0.22832808976 0.41348048529 
0.88268251815 0.2191112593 0.41567723524 0.88244513353 0.22531015668 0.41229645305 0.88026618249 0.25097914044 0.40187123976 
0.87507962689 0.29032190138 0.38347284214 0.86582250913 0.34817107131 0.35428335085 0.84719902547 0.41865326718 0.31498451128 
0.81500699718 0.50743624033 0.26104080896 0.76773416765 0.59877108125 0.19873117536 0.69706564304 0.69406477815 0.12344300213 
0.61974171302 0.7766800702 0.050206281702 0.53139505505 0.83829730141 -0.019632808532 0.4492802387 0.88708694781 -0.08083824366 
0.37818954741 0.91318460242 -0.12677074676 0.31601466417 0.93334310722 -0.16556904161 0.27077911855 0.94221769211 -0.19081289903 
0.23184184243 0.94911899477 -0.21201164425 0.20578605195 0.95198445765 -0.2249371559 0.1823907293 0.95431401916 -0.23626707178 
0.16486950501 0.9554603537 -0.2440740409 0.14721637045 0.95644542748 -0.25169261809 0.12924816515 0.95704532614 -0.25886121678 
0.10934493877 0.95743953844 -0.26648661469 0.084429454481 0.95730096423 -0.27529525321 0.057047760381 0.95663423319 -0.28460474054 
0.022715920586 0.95447907769 -0.29532569423 -0.0128644782 0.95150010752 -0.30616816725 -0.052286247158 0.94598655383 -0.31738451186 
-0.090801878205 0.9398829728 -0.32831884867 -0.12626205185 0.93178984546 -0.33830226755 -0.15924907962 0.92383092442 -0.34773147756 
-0.18305150495 0.91637040975 -0.35510250404 -0.20399062676 0.90968572268 -0.36169234626 -0.21315784669 0.90619069622 -0.36507050501 
-0.21969799315 0.90373659224 -0.36739509529 -0.21419253984 0.9060553032 -0.36488888653 -0.20636884525 0.90936514688 -0.36095622685 
-0.1865918602 0.91778545833 -0.34966851648 -0.16463254667 0.92693259775 -0.33636561699 -0.1298923363 0.94033643517 -0.31126067931 
-0.093186466685 0.95383928745 -0.28342058043 -0.04324299562 0.96800894873 -0.23716072042 0.0078824235961 0.98117235285 -0.18791674208 
0.068290268162 0.9864331201 -0.11523700164 0.12862528931 0.98968809129 -0.040537113889 0.18828027072 0.97421253452 0.053027316686 
0.24691750894 0.95685147681 0.1466175547 0.29404165125 0.91816091935 0.24049973622 0.3404887321 0.87815751962 0.33378170755 
0.37706104152 0.81900664478 0.41830976388 0.41306127442 0.75963232058 0.50147471363 0.43890878098 0.69629240774 0.56044840971 
0.46475341117 0.63270899754 0.61917143057 0.49044599789 0.55625441111 0.66464385586 0.51484390594 0.48365245826 0.70782487392 
0.51484390594 0.48365245826 0.70782487392 0.51484390594 0.48365245826 0.70782487392 
FrenetTangent 3 128 double
-0.94005735346 0.081429740925 0.33115158084 -0.94005735346 0.081429740925 0.33115158084 -0.94425352745 0.078976407168 0.31960601217 
-0.95046095939 0.074200150108 0.30185808322 -0.95796801614 0.06614168709 0.27914612174 -0.96597483151 0.05373611917 0.25299220222 
-0.97367957097 0.035978649675 0.2250636129 -0.98032330981 0.012073160639 0.19702905126 -0.98519670761 -0.018452420409 0.17043167399 
-0.98762860907 -0.055668807471 0.14659711598 -0.98698276311 -0.099205880244 0.12658285293 -0.98268293533 -0.14825133848 0.11115659788 
-0.97426905394 -0.20159181503 0.10079955675 -0.96147065193 -0.25770047248 0.095732188721 -0.94427312769 -0.31486624539 0.0959557598 
-0.9229487864 -0.37134900452 0.10131857934 -0.89803713411 -0.42552782626 0.11160365064 -0.87027471796 -0.47601115611 0.12663054343 
-0.84049161199 -0.52168416913 0.1463539472 -0.80949952213 -0.56168551358 0.1709383149 -0.77798754092 -0.59532984892 0.20079282148 
-0.74644018353 -0.62199194539 0.23654401765 -0.7150703083 -0.64099054365 0.27893651095 -0.68377125403 -0.65149655489 0.32864739635 
-0.6520804717 -0.6525236948 0.38601021509 -0.61917237632 -0.64305425461 0.45067371127 -0.58391709115 -0.62235410664 0.52126403733 
-0.54502494236 -0.59047863921 0.59521658986 -0.50125693903 -0.54882012075 0.66898277716 -0.45160156366 -0.50039480337 0.73868874938 
-0.39528810203 -0.44957942787 0.80101538963 -0.33158989625 -0.40132303664 0.85380791807 -0.25959433237 -0.36018999361 0.8960323382 
-0.178194772 -0.32967886834 0.92712376035 -0.08653271935 -0.31195558984 0.94614787346 0.015075804013 -0.30783845105 0.95131919364 
0.12400797672 -0.31685241562 0.94033322202 0.23466102409 -0.33735843934 0.91165974309 0.33913166211 -0.36692795459 0.86622952611 
0.42939304531 -0.40303195217 0.80819976378 0.49969990624 -0.44375511837 0.74389609397 0.5476246763 -0.48808117825 0.67962046566 
0.57344256452 -0.53565916019 0.61986521866 0.57886444778 -0.58629667696 0.56672052873 0.56609369494 -0.63949231221 0.52018026796 
0.53747160867 -0.69417033365 0.47880248303 0.4955873409 -0.74864030386 0.44037584287 0.44353247371 -0.80080852712 0.4024731639 
0.38500013894 -0.84857475316 0.3628991338 0.32414186954 -0.89024770723 0.31998604374 0.26517200142 -0.92482677992 0.27272557049 
0.21188950421 -0.95203462146 0.22075533413 0.16732768909 -0.9721214688 0.16425983795 0.1335818207 -0.98557907973 0.10387384072 
0.11179922073 -0.99289975538 0.040632622458 0.10225224734 -0.99446792576 -0.024042099627 0.10441132613 -0.99060323091 -0.088337499949 
0.11702802898 -0.98171876545 -0.15010898039 0.13823454186 -0.96852034042 -0.20702550959 0.16569168128 -0.95215902161 -0.25678680713 
0.1968230429 -0.93425416308 -0.29737156648 0.22905940056 -0.91676765047 -0.32721379261 0.26005172219 -0.90175572313 -0.34526760286 
0.2878176338 -0.8910666129 -0.35094344423 0.31078853382 -0.88605532465 -0.34397158154 0.32780792513 -0.88734424717 -0.3242871432 
0.33810698524 -0.89466352067 -0.29199460836 0.34135213205 -0.90676850502 -0.2474865658 0.33778080572 -0.92150031466 -0.19168019559 
0.32837585117 -0.93606750414 -0.12628114692 0.3150123182 -0.94755538828 -0.053907564645 0.30041318061 -0.95355283862 0.022111193514 
0.28784599131 -0.95262317774 0.098253582728 0.28062983363 -0.94438168289 0.17143550828 0.28163714644 -0.92916323011 0.23944980593 
0.29294156077 -0.90750144959 0.3010421249 0.31565155223 -0.87969140917 0.35567839716 0.34984207377 -0.84561057696 0.4031789622 
0.39454166561 -0.8048110441 0.44341409245 0.44776506603 -0.75683455096 0.47613853879 0.50664115386 -0.70164053978 0.50101426542 
0.56774494559 -0.63995818265 0.51780228004 0.62760412277 -0.57343544884 0.52657843775 0.68326296698 -0.50445872204 0.5278949855 
0.73270987024 -0.43571010362 0.52277428366 0.77501798865 -0.36966330612 0.51253893255 0.81020367452 -0.30819435968 0.49858423807 
0.83891870021 -0.25241236186 0.48218607821 0.86213113883 -0.20266705113 0.46438773223 0.88086525744 -0.15869149307 0.44597467221 
0.89603749678 -0.11979348543 0.42751178371 0.908382985 -0.0850009729 0.40940833793 0.9184306272 -0.053242872738 0.39198262656 
0.92651557303 -0.023481137295 0.37552300745 0.93280997472 0.0052120490827 0.36033093902 0.93736038535 0.033549995482 0.34674184315 
0.9401271853 0.061992605238 0.33513846745 0.94102857359 0.090720800048 0.32593704934 0.93997765734 0.11962651804 0.31958019319 
0.93692101226 0.14834530936 0.31650068873 0.93186454273 0.17629331704 0.31709484444 0.92487904609 0.202727991 0.32171433256 
0.91610019529 0.22680322438 0.33063685456 0.90570943655 0.2476273971 0.34405099731 0.89389902564 0.26430619007 0.36205906955 
0.88084039547 0.27595765566 0.38466553002 0.86664067611 0.28174719722 0.4117674773 0.85131130385 0.2808734817 0.44314687318 
0.83474705677 0.27257301842 0.47843630803 0.81671770155 0.25613536855 0.51707530298 0.79688359443 0.23091752836 0.55825946658 
0.77482846381 0.19639866788 0.60088968616 0.75012351032 0.15225569078 0.64353160287 0.72240324559 0.098477762791 0.68442361225 
0.69147038539 0.035486092299 0.7215327043 0.65739465438 -0.035749573918 0.75269797154 0.62057581468 -0.1136399552 0.77586829991 
0.5817676726 -0.19598086146 0.78939082656 0.54203200415 -0.28005941691 0.79231813653 0.50264403682 -0.36286420724 0.7846518587 
0.46495120726 -0.44134723769 0.76748484718 0.43022181427 -0.51273869379 0.74297255832 0.39953749473 -0.57482862423 0.7141021237 
0.37373931291 -0.62609539432 0.68434164216 0.3534126235 -0.66572937581 0.65719397117 0.33891081562 -0.69349957844 0.6357655179 
0.33042720204 -0.70951321118 0.62242177606 0.33042720204 -0.70951321118 0.62242177606 
FrenetNormal 3 128 double
-0.34049648801 -0.17052908231 -0.92465235291 -0.34049648801 -0.17052908231 -0.92465235291 -0.32917086244 -0.20985004811 -0.92065710263 
-0.31050007557 -0.27229464948 -0.91073889065 -0.28396247365 -0.35693137927 -0.8899243249 -0.24877357241 -0.46059302244 -0.85203625354 
-0.20422522864 -0.57613961175 -0.79142605704 -0.15038830021 -0.69221874181 -0.70584458108 -0.088701157153 -0.79588496982 -0.59891503532 
-0.021735570325 -0.87724154262 -0.47955692142 0.047798358834 -0.93245910709 -0.35809960975 0.11784891712 -0.96297112823 -0.24248348176 
0.18716285477 -0.97279657788 -0.13651697279 0.25490285829 -0.96611408123 -0.040596981188 0.32027270393 -0.94615781042 0.047019069547 
0.38232540761 -0.91492050474 0.12941310868 0.43984883794 -0.87307021678 0.21043145283 0.49122048664 -0.81973198191 0.29451979787 
0.53408035259 -0.75217754144 0.38598850129 0.56488236756 -0.66572695096 0.48756080398 0.57887132833 -0.55498438792 0.59741134438 
0.57177714108 -0.41762584358 0.70615830782 0.54399015193 -0.25963625932 0.79791210509 0.50365425175 -0.095477629859 0.85861307752 
0.46410406427 0.059042708364 0.88381071283 0.43687419203 0.19480490608 0.8781753748 0.42853512949 0.30904923562 0.84902662665 
0.441318957 0.40157326828 0.80248145673 0.4758719328 0.47086729517 0.74285253847 0.53278891506 0.51285660531 0.67313748549 
0.61304616777 0.52028193245 0.59454277134 0.71503444787 0.4834792061 0.50494910202 0.82754044602 0.39528990596 0.39865110115 
0.92612811787 0.26215366634 0.27122345863 0.9856522131 0.11134240569 0.12685654699 0.999384519 -0.025500740749 -0.024089321258 
0.97569494438 -0.13360672234 -0.17369116058 0.92321715064 -0.2162482687 -0.317658274 0.8454501172 -0.28493487879 -0.45169261027 
0.74147786989 -0.35357024208 -0.57026191559 0.60566643881 -0.43496345602 -0.66631445792 0.42723048021 -0.53527198578 -0.72866866134 
0.1990950341 -0.64282659648 -0.73968583484 -0.058047650533 -0.72286666469 -0.68854502783 -0.29285754076 -0.74587666361 -0.59824949938 
-0.46982227338 -0.71799651218 -0.51356405631 -0.58913208766 -0.66229609236 -0.46291172953 -0.66469581738 -0.5951385388 -0.4516520674 
-0.70658595668 -0.52397113688 -0.47559492589 -0.71820415985 -0.45173538469 -0.52926168101 -0.6980886329 -0.37925513292 -0.60732018307 
-0.64174291609 -0.30590209723 -0.7032708842 -0.54426837853 -0.2300024937 -0.80676563203 -0.40563025167 -0.15000530217 -0.90164433578 
-0.23556047869 -0.066203015587 -0.96960219761 -0.053352465845 0.018651440952 -0.99840154153 0.12075161902 0.10079287861 -0.98755245032 
0.2749903312 0.17726977272 -0.94496335666 0.40726210334 0.24612913361 -0.87952147715 0.52234349357 0.30559491086 -0.79609611554 
0.62917884746 0.35297077919 -0.69249231544 0.73855163563 0.38265249165 -0.55508427481 0.85833558581 0.37967176112 -0.3451222623 
0.95386330237 0.29943357669 0.022007579321 0.8321916611 0.078826450928 0.54885647471 0.46190899574 -0.14889357341 0.87434019892 
0.16655786279 -0.24848383401 0.95420871018 -0.007068649748 -0.26577071138 0.96401035428 -0.10884173391 -0.240525416 0.96452112533 
-0.16686652143 -0.18908313851 0.96767924994 -0.19166830912 -0.11914311235 0.97420130264 -0.18427861198 -0.035279859858 0.98224066534 
-0.14004614603 0.059621725879 0.98834828213 -0.051621266138 0.1635041058 0.98519117549 0.084951632177 0.27271739302 0.95833628948 
0.25762423147 0.37812714055 0.88918480696 0.43154925462 0.46692339032 0.77184699806 0.5682293058 0.5337068742 0.62631655611 
0.65291809745 0.58509129706 0.48100533482 0.69225082119 0.63046600563 0.35114301403 0.69827220325 0.67479328615 0.23889317935 
0.68116419901 0.71841750314 0.14103767288 0.64849148951 0.75930655995 0.0539660639 0.60605919689 0.79503619256 -0.024692152259 
0.55873308753 0.82370403242 -0.096586768568 0.51045176923 0.84433697301 -0.16289280924 0.46412443646 0.85683062379 -0.22456578016 
0.42149490495 0.86180575602 -0.28219299068 0.38314067174 0.86050606401 -0.33575666703 0.34855278111 0.85490989364 -0.38423955099 
0.31633964441 0.84789881006 -0.42543723071 0.2842400019 0.84363473123 -0.45550857464 0.25023590846 0.84564661117 -0.4714486177 
0.21204627568 0.85704538557 -0.4695844802 0.16817917312 0.8780340882 -0.44807578119 0.1178940199 0.90606792702 -0.40637656391 
0.061014831371 0.93682069144 -0.34444764834 -0.001683372557 0.96462207214 -0.26363122765 -0.069513286934 0.98402703633 -0.16388622488 
-0.14090839716 0.98893497901 -0.046394298069 -0.21454653555 0.97257857882 0.089781357223 -0.28787015142 0.92605661559 0.24402852426 
-0.35629104671 0.83870405898 0.4118642877 -0.41248515763 0.70191443305 0.58066524213 -0.44822936297 0.5163563176 0.72970308444 
-0.45908003253 0.2994797219 0.83639549252 -0.44895029473 0.080322066095 0.88993932297 -0.4273757093 -0.11870001047 0.8962479069 
-0.40444124827 -0.28612386848 0.86865436658 -0.38613996295 -0.42329169859 0.8195853018 -0.37535485183 -0.53481847671 0.75701910952 
-0.3722051071 -0.62657343692 0.68474015976 -0.37572579424 -0.7026812208 0.60420959069 -0.38420184396 -0.76579063338 0.51570694094 
-0.39542941426 -0.81728178389 0.41914921456 -0.4072432865 -0.85729311085 0.31496258141 -0.41759634525 -0.88535866214 0.20433632032 
-0.42481076377 -0.90085463239 0.089424528449 -0.42788561241 -0.90344087689 -0.026617375247 -0.42632267605 -0.89364524381 -0.1401683063 
-0.42081692618 -0.8728676406 -0.24701254348 -0.41235716537 -0.84377250266 -0.34352515473 -0.40232669146 -0.8099003212 -0.42684271467 
-0.39222144201 -0.77527560737 -0.49508592491 -0.38328594858 -0.74390304839 -0.54744875214 -0.37688461577 -0.71924313054 -0.58364998549 
-0.37296021286 -0.70394636376 -0.60445032598 -0.37296021286 -0.70394636376 -0.60445032598 
FrenetBinormal 3 128 double
-0.018823226356 -0.98198219402 0.18803365861 -0.018823226356 -0.98198219402 0.18803365861 -0.0056408531693 -0.9745387034 0.22414838023 
0.01461737857 -0.9593487174 0.281844586 0.040774914019 -0.93178606328 0.36071060237 0.070741321415 -0.8859833504 0.45828939358 
0.10119362171 -0.81655905147 0.56832311794 0.12786542695 -0.72158676005 0.68041383019 0.14669543973 -0.60516660763 0.78246650086 
0.1552974421 -0.4768105072 0.86517885128 0.15355892102 -0.34738768967 0.92506294426 0.1429890952 -0.22518469494 0.96376655463 
0.12557816819 -0.11413832912 0.98549610121 0.10295007678 -0.014630397433 0.99457892254 0.0759845737 0.075130854511 0.99427445872 
0.044641016674 0.15817833875 0.98640092902 0.007893384761 0.23806399488 0.97121739524 -0.03639160314 0.31851665119 0.94721845112 
-0.091279938398 0.40258486538 0.9108201793 -0.1600575974 0.49124027786 0.85619189141 -0.24421992427 0.58101179002 0.77639031965 
-0.34043788472 0.66235539905 0.66737348764 -0.43903208174 0.72230196995 0.53435072322 -0.52800498752 0.75261959924 0.39341386857 
-0.5994985204 0.75546461619 0.26433830167 -0.65250786106 0.74062964712 0.16031599129 -0.68949146003 0.71914110988 0.086241466994 
-0.71287122989 0.70005277432 0.041721969793 -0.72269453066 0.69071011676 0.025142592554 -0.71567590408 0.69755511836 0.034997959499 