# vtk DataFile Version 4.2
vtk output
ASCII
DATASET POLYDATA
POINTS 128 float
0 0 0 -0.285726 -0.142867 0.102402 -0.850761 -0.405532 0.318618 
-1.32985 -0.582345 0.534125 -1.72937 -0.688008 0.746267 -2.14867 -0.790915 0.981262 
-2.58212 -0.891126 1.23744 -3.00244 -0.974907 1.50697 -3.41025 -1.04802 1.78759 
-3.81302 -1.12068 2.07839 -4.21121 -1.19667 2.37726 -4.60357 -1.27811 2.68163 
-4.99122 -1.36847 2.98879 -5.37602 -1.47154 3.29578 -5.75961 -1.59037 3.59875 
-6.14367 -1.7276 3.89334 -6.53026 -1.88521 4.17404 -6.92159 -2.06478 4.4346 
-7.31975 -2.26703 4.66669 -7.72656 -2.49204 4.86071 -8.14229 -2.7379 5.00367 
-8.56581 -3.00118 5.08144 -8.99038 -3.27359 5.08098 -9.40654 -3.54482 4.99136 
-9.80167 -3.80457 4.81344 -10.1624 -4.04346 4.55399 -10.4799 -4.25901 4.22602 
-10.7478 -4.45224 3.845 -10.9625 -4.62767 3.42407 -11.122 -4.79146 2.97503 
-11.2252 -4.95037 2.50824 -11.2718 -5.11131 2.03323 -11.2643 -5.28014 1.55873 
-11.2067 -5.46193 1.09278 -11.1065 -5.65962 0.640681 -10.9723 -5.87486 0.205977 
-10.8128 -6.10801 -0.210499 -10.6364 -6.35866 -0.609496 -10.4503 -6.62629 -0.992629 
-10.2605 -6.91037 -1.36196 -10.0726 -7.21062 -1.71914 -9.89132 -7.52699 -2.06551 
-9.72154 -7.86044 -2.40175 -9.56839 -8.21243 -2.72792 -9.43769 -8.58346 -3.04182 
-9.33634 -8.9739 -3.33954 -9.27875 -9.39159 -3.61433 -9.28537 -9.84716 -3.85493 
-9.38806 -10.3188 -4.01408 -9.62222 -10.7607 -4.02285 -9.95776 -11.1234 -3.87395 
-10.3191 -11.3593 -3.6063 -10.6687 -11.4818 -3.26145 -10.997 -11.5442 -2.8804 
-11.3006 -11.5732 -2.4809 -11.5801 -11.575 -2.06354 -11.8351 -11.5567 -1.62985 
-12.0639 -11.5265 -1.18231 -12.264 -11.4909 -0.722066 -12.4322 -11.4553 -0.249162 
-12.5644 -11.4263 0.235663 -12.6549 -11.4114 0.730928 -12.698 -11.42 1.23275 
-12.6876 -11.4631 1.73494 -12.622 -11.5511 2.22733 -12.5037 -11.6936 2.69622 
-12.3414 -11.8946 3.1298 -12.1497 -12.1523 3.51846 -11.9426 -12.461 3.85892 
-11.733 -12.8114 4.15415 -11.5299 -13.1948 4.40946 -11.3381 -13.6034 4.63227 
-11.1606 -14.0309 4.82947 -10.9978 -14.4726 5.00721 -10.8496 -14.9246 5.17088 
-10.7152 -15.3841 5.32502 -10.5931 -15.8489 5.47356 -10.4814 -16.317 5.61979 
-10.3779 -16.7868 5.76646 -10.2799 -17.257 5.91567 -10.1846 -17.7264 6.0689 
-10.0885 -18.1942 6.22682 -9.98794 -18.6593 6.38949 -9.87873 -19.1212 6.55616 
-9.75674 -19.5787 6.72589 -9.61771 -20.0306 6.89752 -9.45756 -20.4753 7.06985 
-9.27244 -20.9105 7.2417 -9.05919 -21.3332 7.41221 -8.81567 -21.7399 7.58113 
-8.54095 -22.1268 7.74884 -8.23587 -22.4902 7.91675 -7.90219 -22.8266 8.08655 
-7.54295 -23.1333 8.26027 -7.16159 -23.4084 8.43977 -6.76217 -23.651 8.62663 
-6.34864 -23.8609 8.82208 -5.92472 -24.0388 9.02676 -5.49386 -24.1859 9.24103 
-5.05897 -24.3041 9.46479 -4.62258 -24.3956 9.69779 -4.18654 -24.4631 9.93952 
-3.75241 -24.5091 10.1894 -3.32114 -24.5365 10.4469 -2.89352 -24.5478 10.7115 
-2.47002 -24.5459 10.9829 -2.05103 -24.5332 11.2609 -1.63683 -24.5121 11.5454 
-1.22767 -24.4849 11.8367 -0.823756 -24.4538 12.1347 -0.4253 -24.4207 12.4399 
-0.0324822 -24.3875 12.7522 0.354579 -24.3564 13.0719 0.735926 -24.3297 13.3987 
1.11172 -24.3104 13.7324 1.48239 -24.3026 14.0724 1.84843 -24.3119 14.4173 
2.21046 -24.3481 14.7649 2.56839 -24.4218 15.1116 2.91968 -24.5461 15.4502 
3.25953 -24.735 15.7711 3.57712 -25.0059 16.0573 3.86106 -25.3612 16.2944 
4.10234 -25.7513 16.4805 4.29992 -26.1501 16.6184 4.48093 -26.6653 16.7162 
4.65146 -27.2994 16.7796 4.73018 -27.6245 16.8025 
LINES 1 129
128 0 1 2 3 4 5 6 7 8 9 10 11 12 13 14 15 16 17 18 19 20 21 22 23 24 25 26 27 28 29 30 31 32 33 34 35 36 37 38 39 40 41 42 43 44 45 46 47 48 49 50 51 52 53 54 55 56 57 58 59 60 61 62 63 64 65 66 67 68 69 70 71 72 73 74 75 76 77 78 79 80 81 82 83 84 85 86 87 88 89 90 91 92 93 94 95 96 97 98 99 100 101 102 103 104 105 106 107 108 109 110 111 112 113 114 115 116 117 118 119 120 121 122 123 124 125 126 127 

CELL_DATA 1
FIELD FieldData 2
Length 1 1 double
58.44449031 
Tortuosity 1 1 double
0.78853010751 
POINT_DATA 128
SCALARS MaximumInscribedSphereRadius float
LOOKUP_TABLE default
0.93 0.93 0.93 0.93 0.93 0.939844 0.949847 1.01973 1.0931 
1.14264 1.19042 1.1176 1.03337 1.03195 1.04011 1.1148 1.19864 1.22295 
1.23771 1.2633 1.29087 1.32236 1.35467 1.35873 1.35638 1.41195 1.48184 
1.39802 1.27269 1.23744 1.22881 1.36765 1.55406 1.62609 1.65796 1.64904 
1.62454 1.5765 1.51869 1.44934 1.37479 1.41601 1.5136 1.64088 1.78375 
1.83185 1.82625 1.68405 1.45872 1.27086 1.10646 1.08909 1.15502 1.20533 
1.24581 1.25263 1.23684 1.21002 1.17527 1.13263 1.0839 1.03003 0.971918 
0.995689 1.09157 1.16409 1.21479 1.24 1.24 1.24 1.24 1.34918 
1.58108 1.81069 2.03754 2.17018 2.1813 2.18751 2.18693 2.18363 2.17628 
2.13908 2.05408 1.95381 1.82724 1.68315 1.50652 1.41618 1.49871 1.59894 
1.73749 1.80441 1.70369 1.62003 1.57965 1.54352 1.51913 1.48233 1.40813 
1.35367 1.36448 1.39131 1.47661 1.56328 1.65546 1.76184 1.93265 2.12066 
2.39673 2.62253 2.55405 2.47598 2.333 2.20428 2.18962 2.18423 2.26836 
2.35039 2.40719 2.45754 2.40772 2.35468 2.23965 2.12517 2.04367 1.96452 
1.91226 1.86 
TEXTURE_COORDINATES TCoords 2 float
0 0 0.00787402 0 0.015748 0 0.023622 0 0.0314961 
0 0.0393701 0 0.0472441 0 0.0551181 0 0.0629921 0 
0.0708661 0 0.0787402 0 0.0866142 0 0.0944882 0 0.102362 
0 0.110236 0 0.11811 0 0.125984 0 0.133858 0 
0.141732 0 0.149606 0 0.15748 0 0.165354 0 0.173228 
0 0.181102 0 0.188976 0 0.19685 0 0.204724 0 
0.212598 0 0.220472 0 0.228346 0 0.23622 0 0.244094 
0 0.251969 0 0.259843 0 0.267717 0 0.275591 0 
0.283465 0 0.291339 0 0.299213 0 0.307087 0 0.314961 
0 0.322835 0 0.330709 0 0.338583 0 0.346457 0 
0.354331 0 0.362205 0 0.370079 0 0.377953 0 0.385827 
0 0.393701 0 0.401575 0 0.409449 0 0.417323 0 
0.425197 0 0.433071 0 0.440945 0 0.448819 0 0.456693 
0 0.464567 0 0.472441 0 0.480315 0 0.488189 0 
0.496063 0 0.503937 0 0.511811 0 0.519685 0 0.527559 
0 0.535433 0 0.543307 0 0.551181 0 0.559055 0 
0.566929 0 0.574803 0 0.582677 0 0.590551 0 0.598425 
0 0.606299 0 0.614173 0 0.622047 0 0.629921 0 
0.637795 0 0.645669 0 0.653543 0 0.661417 0 0.669291 
0 0.677165 0 0.685039 0 0.692913 0 0.700787 0 
0.708661 0 0.716535 0 0.724409 0 0.732283 0 0.740157 
0 0.748031 0 0.755906 0 0.76378 0 0.771654 0 
0.779528 0 0.787402 0 0.795276 0 0.80315 0 0.811024 
0 0.818898 0 0.826772 0 0.834646 0 0.84252 0 
0.850394 0 0.858268 0 0.866142 0 0.874016 0 0.88189 
0 0.889764 0 0.897638 0 0.905512 0 0.913386 0 
0.92126 0 0.929134 0 0.937008 0 0.944882 0 0.952756 
0 0.96063 0 0.968504 0 0.976378 0 0.984252 0 
0.992126 0 1 0 
FIELD FieldData 7
Curvature 1 128 double
0 0.014545427187 0.025965150595 0.034618290359 0.039761545261 0.041083487897 0.038709987873 0.033175119532 0.025549988445 
0.018417153588 0.01845730124 0.028782601195 0.044455852861 0.063125108691 0.084305248642 0.10804968645 0.13453188744 0.16383781376 
0.19573142724 0.22940639051 0.2631797272 0.29440395752 0.31971476648 0.33581132557 0.34058432873 0.33392830988 0.31771578701 
0.29507679766 0.26919155197 0.24258235455 0.21686501489 0.19276829439 0.17049307743 0.15007337973 0.13155259829 0.11532544704 
0.10232873139 0.094160232356 0.092841949243 0.10002542411 0.11637701974 0.14225360288 0.17891768595 0.22919146108 0.29757634054 
0.38884052312 0.50375911407 0.62949487356 0.73000075319 0.75830103199 0.69781781778 0.58129319044 0.45580656559 0.34925261414 
0.26888928336 0.21266883314 0.17674977053 0.15793602967 0.15338082932 0.15975004695 0.17334559395 0.19064476077 0.20840698663 
0.22360766807 0.23367177456 0.23674334495 0.23213599651 0.22047064508 0.20331726044 0.18270796084 0.16053156668 0.13830822212 
0.11696389759 0.097016439873 0.078606587577 0.061666823844 0.046044527476 0.031563492086 0.018450105966 0.0097956429806 0.015441740527 
0.027624605667 0.040873389451 0.054384431614 0.067824115504 0.080902932248 0.093295976448 0.10465598728 0.11463447792 0.12293561604 
0.12932216328 0.1336399909 0.13585068262 0.13602180519 0.13429844456 0.13085698557 0.12597476545 0.11984925844 0.11278871093 
0.10497327935 0.096701266867 0.088114165805 0.07941735006 0.070728936881 0.062192856947 0.053916365714 0.04599838943 0.03883748656 
0.033115705486 0.030434406156 0.032845092955 0.041016902136 0.054159550817 0.071297885324 0.091976992451 0.11562152716 0.14140572729 
0.16775977418 0.19203010678 0.21056343001 0.2193944817 0.21545952184 0.1978616281 0.16833477594 0.13017978776 0.086880432571 
0.041243917312 0 
Torsion 1 128 double
0 0 -0.045223874561 -0.066783311856 -0.095608235348 -0.13750364643 -0.20636731008 -0.3396011131 -0.65342686714 
-1.4126852895 -1.618045881 -0.80498315476 -0.43014891085 -0.28120784349 -0.20958381553 -0.16738196448 -0.13749354503 -0.11278747725 
-0.090010728987 -0.067416216975 -0.044018279828 -0.019311431441 0.007005362159 0.03517871017 0.065130966127 0.096454628654 0.12850798436 
0.16008538057 0.18971942948 0.21648887284 0.24006377373 0.26151378277 0.28412580014 0.31263307595 0.35394776411 0.41500302149 
0.49595260494 0.57521241686 0.60194469944 0.54115181228 0.42290890281 0.30073461532 0.19945075182 0.1216956892 0.062259996057 
0.015955142494 -0.020744677513 -0.050751135511 -0.076873097813 -0.10339172691 -0.13505386908 -0.17526520562 -0.22660520038 -0.29187140469 
-0.37343993069 -0.4677360993 -0.55540758098 -0.5985091027 -0.5712623658 -0.49343437518 -0.40570851975 -0.33251372335 -0.27894548772 
-0.24201813108 -0.21743474228 -0.20145488035 -0.1911140732 -0.18470627112 -0.18091173669 -0.1782755993 -0.1760404091 -0.17316904276 
-0.16829861671 -0.1595833378 -0.14334055944 -0.11310722847 -0.05164778786 0.099469634259 0.62765610007 2.6347996689 0.99081847833 
0.24267273397 0.073925815623 0.025460567586 0.013952841386 0.016726185142 0.025636813899 0.037018355624 0.04926215738 0.061207930101 
0.072232611527 0.081793183098 0.089723818977 0.095988057881 0.10038011991 0.10341923295 0.10530152097 0.10663235346 0.1083433789 
0.11120292609 0.11611369537 0.12465110844 0.13842524427 0.15995473392 0.19307947007 0.24608217758 0.33167146399 0.47068675776 
0.68004562772 0.87418153587 0.84356452932 0.62415266989 0.41861466625 0.2840508162 0.19910983879 0.14434224841 0.10738878454 
0.081398802285 0.062359370871 0.04816751635 0.037273920549 0.028656045463 0.021879113685 0.016349345652 0.011705205571 0.0077646057434 
0 0 
Abscissas 1 128 double
0 0.50293257744 1.0058651549 1.5087975088 2.0117298431 2.514660973 3.0175920834 3.520526643 4.0234614038 
4.5263940523 5.0293265447 5.5322591791 6.035191827 6.5381242861 7.0410567234 7.5439890674 8.0469213986 8.5498554796 
9.0527898409 9.5557209907 10.058651552 10.561584019 11.064516879 11.567447277 12.070377115 12.573316408 13.07625804 
13.579189863 14.082119038 14.585052556 15.087987358 15.590918432 16.093848304 16.596781804 17.099716577 17.602659171 
18.10560475 18.608540251 19.111471575 19.614405281 20.117340059 20.620268516 21.123193896 21.626124526 22.129057914 
22.631988528 23.13491757 23.637844322 24.14076968 24.643696658 25.146624648 25.649561403 26.152503125 26.655435746 
27.158362639 27.661290229 28.164218288 28.667151396 29.170088142 29.67302352 30.175957844 30.678890052 31.181820514 
31.684750629 32.187680438 32.690607718 33.193532636 33.696463269 34.199399556 34.702332788 35.205262804 35.708191958 
36.211120144 36.714057414 37.217005618 37.719945261 38.222873861 38.725807442 39.228747921 39.731671419 40.234569656 
40.737490683 41.24044819 41.743390669 42.246307255 42.749241341 43.252207935 43.755157411 44.258072587 44.7609981 
45.263945986 45.766883582 46.269797095 46.772714791 47.275643103 47.778573696 48.281510588 48.784447981 49.287386889 
49.79032408 50.293255595 50.796187246 51.299119397 51.802052374 52.304988698 52.807924801 53.310859906 53.813792348 
54.316711151 54.819634187 55.322582002 55.825524991 56.32843529 56.831348575 57.334285714 57.837222322 58.340153814 
58.843085635 59.346021401 59.848959096 60.351926779 60.854891128 61.357791275 61.86069216 62.363637904 62.866581196 
63.369496545 63.872411894 
ParallelTransportNormals 3 128 double
0.35218648581 0 0.93592984738 0.39084790409 0.015248836649 0.91914923443 0.42950932236 0.030497673298 0.90236862147 
0.46026316024 0.039377000286 0.8862603001 0.49032683887 0.047700408044 0.87021065511 0.51754140013 0.05353583697 0.85333906022 
0.54470978833 0.059330945491 0.83645414474 0.56421755656 0.063025350224 0.82287643692 0.58327853757 0.066597236466 0.80949161402 
0.59459942856 0.068888380613 0.80094715066 0.60534855949 0.071084916406 0.79276024442 0.60647356537 0.071325344017 0.79189799266 
0.60668894741 0.071380890132 0.79172803035 0.59421088011 0.067118493542 0.80129606126 0.58026324453 0.062356192518 0.81199149619 
0.54874489296 0.048636375336 0.83343392611 0.51480794395 0.033683561971 0.85635567279 0.45457006207 0.0018653960353 0.88714130527 
0.39011860715 -0.032654704292 0.91918678118 0.28940365979 -0.093091042295 0.94414772522 0.18204663568 -0.15827423804 0.96781105557 
0.047662253296 -0.24425526864 0.95412985259 -0.09229205666 -0.33452241677 0.93275250913 -0.21988959706 -0.41873486061 0.86512684525 
-0.34467872455 -0.50157120775 0.78698998916 -0.43135488952 -0.56259772695 0.69216067078 -0.50860507002 -0.61823030439 0.59320302231 
-0.55261084578 -0.65711531565 0.503028658 -0.5876406337 -0.69147848477 0.41522578004 -0.6020078379 -0.71614930872 0.34707692408 
-0.61027169982 -0.73795719448 0.28473350004 -0.61017541394 -0.75235195119 0.24616732231 -0.60738301383 -0.76435600344 0.21526921141 
-0.60587236106 -0.7688387777 0.20442022452 -0.60481166097 -0.77068123511 0.20060940852 -0.60824119275 -0.76574870075 0.20845269061 
-0.61338458744 -0.75823024045 0.22074418984 -0.62225917954 -0.74490266888 0.23912129638 -0.63268077301 -0.72916656673 0.26002157222 
-0.64577583932 -0.70704790756 0.28564470185 -0.66007327895 -0.68205874369 0.31339189773 -0.67637128492 -0.64724960731 0.3473678098 
-0.69364335686 -0.60765917426 0.38437645336 -0.71140146501 -0.54669583356 0.43292836443 -0.72941496389 -0.47450196591 0.48754575705 
-0.73179260376 -0.3360561265 0.56343225356 -0.72531198371 -0.16007623255 0.65136843983 -0.62004133496 0.11519563706 0.69390729111 
-0.45463998388 0.45090372993 0.70881406585 -0.25836252632 0.68147284525 0.62358424561 -0.042759576861 0.84623500853 0.47567848676 
0.088246977707 0.91987525728 0.36327705807 0.1713210294 0.94188562943 0.27099246072 0.22535044102 0.95105701575 0.20303226644 
0.26109918974 0.95214755924 0.15038182333 0.28540411451 0.95149417029 0.10992135608 0.30201875509 0.94966885347 0.077652589364 
0.3122374507 0.94828855265 0.054970031369 0.31784797162 0.94722887863 0.039194181411 0.31965786047 0.94683781042 0.035835211909 
0.31853292874 0.94696303478 0.042064467669 0.31846572898 0.94484759676 0.067114141651 0.31927223729 0.94088132617 0.10770986287 
0.32947431619 0.92638494652 0.16723024965 0.34794994121 0.90261596953 0.24341530746 0.37686968338 0.8633492164 0.32252032616 
0.4155451298 0.80960620659 0.40435283963 0.45477613593 0.74900367879 0.47428194145 0.49455664228 0.68161644957 0.53243746179 
0.52855713723 0.61799334408 0.57848978666 0.55647727168 0.55832995902 0.61180999282 0.57890067861 0.50601926092 0.63794716543 
0.59514568607 0.46197308695 0.65601050675 0.60774692607 0.42520555872 0.67020520066 0.61596244665 0.39719877017 0.6797435046 
0.62196917925 0.37568984747 0.68693068281 0.62512643161 0.36256359458 0.69108475583 0.62695119179 0.35498196144 0.69348396023 
0.62693086943 0.35507788258 0.69345322358 0.6259833442 0.35955456047 0.69193521049 0.6236566401 0.37054744671 0.6882049305 
0.62035795939 0.38490014085 0.68316670674 0.61550341197 0.40463096153 0.67603482546 0.6091542763 0.42731772602 0.66764294402 
0.6002301384 0.45509723887 0.65708022843 0.58887917501 0.48565611585 0.64525273537 0.57301973984 0.52137839856 0.63107558283 
0.55364928553 0.55932972392 0.61566531376 0.52724452993 0.60174691998 0.5977845047 0.49676517335 0.64504121521 0.57876647607 
0.45746664283 0.690233927 0.55728701939 0.41482850062 0.73436560813 0.53489698842 0.36437414893 0.77601399517 0.51037579965 
0.31233494904 0.81518400207 0.48529089847 0.25627268814 0.8480627601 0.45877504046 0.20041364713 0.87812880741 0.43212143899 
0.14511573398 0.9004284384 0.40508750224 0.091292058518 0.92035679844 0.37838122732 0.04191312345 0.9331359153 0.35266283368 
-0.0053990024508 0.9443051195 0.3276466006 -0.045874823897 0.95014927811 0.30495287674 -0.084268720736 0.95510554614 0.28314231442 
-0.11506423549 0.95682128767 0.26455501906 -0.14408160072 0.95815603374 0.246848751 -0.16589136932 0.95794644312 0.2327136614 
-0.18629827874 0.9576396311 0.21936729897 -0.20034178188 0.95689182019 0.20959862378 -0.21332414102 0.95617165847 0.20050329714 
-0.22087046578 0.95559313814 0.19485740422 -0.22752381596 0.95508237456 0.18986745237 -0.22895091729 0.95496816607 0.18871648022 
-0.22934572169 0.95491802981 0.18845030292 -0.22274865823 0.95530186233 0.19417694468 -0.21449189087 0.9556241272 0.20147881938 
-0.19297262871 0.95545441242 0.22136819158 -0.16876155717 0.95453977412 0.24390438655 -0.11859094043 0.94644116641 0.29196628034 
-0.065291257374 0.93569095596 0.34294850869 0.025599219984 0.89308592279 0.42901394869 0.11751732019 0.84650438673 0.51557304361 
0.22541202125 0.73809958555 0.60980706301 0.331089646 0.62941832198 0.70167060804 0.3940745401 0.51541341014 0.74788754039 
0.45657997512 0.40165904727 0.79363650659 0.48996395779 0.30312256319 0.81096207942 0.52065535008 0.21253355475 0.82689025544 
0.52065535008 0.21253355475 0.82689025544 0.52065535008 0.21253355475 0.82689025544 
FrenetTangent 3 128 double
-0.85444509683 -0.28324196742 0.43554283876 -0.85444509683 -0.28324196742 0.43554283876 -0.85258620089 -0.27693089232 0.44317722293 
-0.84948946721 -0.26767501289 0.4546622181 -0.84512960554 -0.25668709248 0.468900508 -0.83960480306 -0.24539622346 0.48460754037 
-0.83318650886 -0.23528091255 0.50044293744 -0.82632303119 -0.22771237581 0.51510903897 -0.81960182982 -0.22383180988 0.52740132864 
-0.81368747623 -0.22447785488 0.53621113723 -0.80925452058 -0.23016328881 0.54049235092 -0.80692269341 -0.24108575929 0.53921556313 
-0.80719877049 -0.25716067345 0.53131773257 -0.81041861457 -0.27805991008 0.51565914669 -0.81667903817 -0.30324102635 0.49099921441 
-0.82575416008 -0.33196356978 0.45599370111 -0.8369901251 -0.36328669227 0.40923136452 -0.84918475458 -0.3960463724 0.34933153809 
-0.86047060345 -0.4288252483 0.27513496145 -0.86824839116 -0.45993769293 0.18601626237 -0.8692471212 -0.48747515406 0.082325065831 
-0.85981178845 -0.5094699688 -0.03411802069 -0.8364854215 -0.52421128428 -0.15967050147 -0.79680972467 -0.53067538335 -0.28892542321 
-0.74006727899 -0.52892350166 -0.41537976837 -0.667603131 -0.52024006289 -0.53259396959 -0.58253359313 -0.50689766927 -0.6353812759 
-0.48898448088 -0.49164775666 -0.72053914594 -0.39126032248 -0.47715468458 -0.78691725552 -0.29327186758 -0.46558531775 -0.83499815783 
-0.19827302469 -0.45843693079 -0.86632752938 -0.10885070586 -0.45654041122 -0.88301889943 -0.027023122252 -0.46017391548 -0.88741744313 
0.045677697782 -0.46922967032 -0.88189402108 0.10812829719 -0.48336903578 -0.86871321309 0.15954783487 -0.50217049145 -0.84992310588 
0.19944381073 -0.52524731671 -0.82724689341 0.22753219003 -0.55232248916 -0.80197816084 0.24363803346 -0.58326341766 -0.77488340689 
0.24758057401 -0.61807827962 -0.74611198867 0.23904309 -0.65686918211 -0.71510927747 0.2174551402 -0.69972717522 -0.68051094206 
0.18186070066 -0.7465444589 -0.6399984816 0.13084409488 -0.79666837961 -0.5900841599 0.062595735399 -0.84826741139 -0.52585565765 
-0.024615136368 -0.89722662402 -0.44088374909 -0.1310267247 -0.93557329657 -0.3279246928 -0.25255708214 -0.9503695149 -0.18169398837 
-0.377367052 -0.92605227322 -0.0046146869871 -0.48630873286 -0.85335747253 0.18784259482 -0.56161606679 -0.73952734743 0.3710615797 
-0.59723248985 -0.60625817879 0.5251327201 -0.59902297893 -0.47598836389 0.64389948607 -0.57714168966 -0.36243079514 0.73181376647 
-0.5401808223 -0.27072311785 0.79681470411 -0.49364270023 -0.20124480925 0.84605993361 -0.44052743513 -0.15261656496 0.88467155657 
-0.38228366602 -0.1232032776 0.91579481931 -0.31957030439 -0.11162803629 0.9409644 -0.25279001755 -0.11682042231 0.96044270832 
-0.18247648918 -0.13784636063 0.97349920994 -0.10958275437 -0.17363445876 0.97869438267 -0.035675679564 -0.22268092038 0.97423839669 
0.03699997494 -0.28278667748 0.95846893371 0.10568043047 -0.35096296401 0.93040670919 0.16745449817 -0.42359519743 0.8902393497 
0.21977494372 -0.49685049682 0.83954663832 0.26095490405 -0.56721994116 0.78112999968 0.29042104354 -0.63198910227 0.71850218655 
0.30868543328 -0.68946361322 0.65525050883 0.31710860891 -0.73892083309 0.59450662955 0.31755390936 -0.78040021021 0.53864183513 
0.31208110956 -0.81442747186 0.48919655982 0.30272879778 -0.84177157848 0.4469629567 0.29138603069 -0.86327462921 0.41212994999 
0.27974218202 -0.87974252373 0.38444427885 0.26926235281 -0.89189478543 0.36334759815 0.26119813026 -0.90033728502 0.3480923871 
0.25660335456 -0.90555286127 0.33782944495 0.25634044302 -0.90789648462 0.33168290654 0.26108834981 -0.90758896909 0.32880866288 
0.27134348553 -0.90471284618 0.32843169582 0.28740712251 -0.8992094496 0.32987802544 0.30937257433 -0.8908796063 0.33259906394 
0.33711233884 -0.87939605761 0.33618126786 0.37025678257 -0.86433438665 0.34034685692 0.4081850019 -0.84521956771 0.34494765773 
0.45002660008 -0.82159118967 0.34994853375 0.49468621134 -0.79307918756 0.35540252471 0.5408945063 -0.75947654274 0.36142566882 
0.58728454169 -0.72080009842 0.36816312311 0.63247949913 -0.6773308999 0.37575595168 0.67519333814 -0.62961883102 0.38430987986 
0.71432188781 -0.5784507872 0.39387679213 0.74900954301 -0.52479290694 0.40444667054 0.77868616972 -0.46972568974 0.4159394493 
0.80307517884 -0.41435948537 0.42822479378 0.82217175457 -0.35977005057 0.44113389883 0.83620231367 -0.30693967101 0.45448182469 
0.84556622062 -0.25672070895 0.46809426843 0.85078065557 -0.20981197096 0.48182072699 0.85242457008 -0.16675601881 0.49554493491 
0.8510886776 -0.12796258169 0.50918919916 0.84734144733 -0.093725630887 0.5227121366 0.84170702595 -0.064256769473 0.53609733263 
0.834653815 -0.039717960823 0.54934096216 0.82659071693 -0.020287851018 0.56243772081 0.81787516103 -0.0061763898027 0.57536255803 
0.80881892786 0.0023229870679 0.58805318269 0.79969426951 0.0047825535091 0.60038837639 0.79072248653 0.0006554832724 0.61217441929 
0.78205708362 -0.0107517688 0.62311404849 0.77374243486 -0.030268904522 0.63277676784 0.76565296423 -0.058781648937 0.64056245294 
0.75742953788 -0.097158596103 0.64564750627 0.74840005035 -0.14608099869 0.64696035926 0.73754436455 -0.20577326341 0.64318401285 
0.72353432181 -0.27568293435 0.63284832691 0.70492263355 -0.35408141949 0.61458150726 0.68052784542 -0.43778802764 0.58755722654 
0.64997779136 -0.5222733354 0.55205020955 0.61420317309 -0.60231616813 0.50987223475 0.57558530587 -0.67309131794 0.46438091411 
0.53757246332 -0.73123248953 0.41989866985 0.5039115044 -0.77527403693 0.3808193317 0.47790310475 -0.80530907275 0.35083602981 
0.46193513074 -0.82221999991 0.33252098691 0.46193513074 -0.82221999991 0.33252098691 
FrenetNormal 3 128 double
0.17508434465 0.63230261433 0.75467799502 0.17508434465 0.63230261433 0.75467799502 0.19157319315 0.6233821797 0.75808599097 
0.21743954031 0.60754319949 0.76394457067 0.2522976158 0.58179035393 0.77321788465 0.29623748781 0.54093756455 0.7871657399 
0.35071289051 0.47486593771 0.80715723972 0.41964292386 0.36105572478 0.83278963734 0.50848634488 0.13998082838 0.84961579832 
0.58114431129 -0.33565458759 0.74135503457 0.38445166853 -0.90316620548 0.19101759041 0.080814284311 -0.9493859018 -0.30353823632 
-0.075563475641 -0.84768862337 -0.52508490643 -0.15203004479 -0.75021815727 -0.64347461642 -0.18834119311 -0.66417566964 -0.72346269761 
-0.19882687131 -0.58523810446 -0.78610701328 -0.18878403743 -0.51023091679 -0.83906197552 -0.16015424519 -0.43720491959 -0.88498727451 
-0.11357437472 -0.36498315383 -0.92406069001 -0.049449464082 -0.29284192365 -0.95488133203 0.031429935238 -0.22067626283 -0.97484057476 
0.12727552751 -0.14912975296 -0.98059229901 0.23493024585 -0.079811547755 -0.96873004311 0.34988255719 -0.015381972471 -0.93666727876 
0.46679709259 0.040644222377 -0.88342997546 0.58027586225 0.084604006718 -0.81001363306 0.68570417074 0.11324592238 -0.71901679486 
0.77957896403 0.12427771691 -0.61384989038 0.85927479548 0.11672965456 -0.49801708163 0.92265938589 0.090904514994 -0.37474795101 
0.96786675613 0.047900066245 -0.24685932437 0.99307646238 -0.010475102565 -0.11700176105 0.99648107181 -0.082861961021 0.012624141332 
0.97559471935 -0.16885123566 0.14037166307 0.92587301348 -0.26925884224 0.26506383907 0.83839477048 -0.38561481704 0.38522126333 
0.6986081762 -0.5157708071 0.49591036558 0.49217227431 -0.64541216753 0.58413148041 0.22735265521 -0.74235027137 0.63025934722 
-0.047333142562 -0.7768834063 0.62786284061 -0.27612617237 -0.75203989884 0.59849003959 -0.43939535817 -0.69273223018 0.57188615693 
-0.54766162052 -0.61746051748 0.56463196753 -0.61609658673 -0.53165788073 0.5811754414 -0.65552523214 -0.4322462481 0.61923327675 
-0.66981770568 -0.31258376529 0.67352478116 -0.65727741707 -0.16564774996 0.73521916456 -0.61179625566 0.011369876993 0.79093366818 
-0.52682416624 0.21057774225 0.82347635809 -0.40280034072 0.40970931986 0.81846817821 -0.25135850485 0.5797684737 0.77504026924 
-0.089321011781 0.70092344742 0.70762142259 0.072450356805 0.7686218041 0.63558749835 0.23289473116 0.78586265472 0.57286990855 
0.39666508135 0.75315535372 0.52479884375 0.56630136119 0.66394664616 0.4883417035 0.73250782652 0.50860464516 0.45249707072 
0.8684487487 0.2906784217 0.40162523082 0.94439222356 0.043643315523 0.32591193456 0.9556334234 -0.18528146 0.22898807973 
0.92198553922 -0.36792480407 0.12072283968 0.86498460254 -0.50173722493 0.0078354631262 0.79666086303 -0.59491502065 -0.10680630843 
0.72130854042 -0.65625225761 -0.22146549144 0.63976526554 -0.69229367895 -0.33381112488 0.55189405022 -0.70796640882 -0.44067734377 
0.45819072915 -0.70718947427 -0.53846476505 0.35985470253 -0.6936873063 -0.62394111432 0.25841938837 -0.67116579591 -0.69480637167 
0.15576228846 -0.64295132752 -0.74990112678 0.053858372426 -0.61181677387 -0.78916380488 -0.045721274451 -0.57998428073 -0.81334359232 
-0.14100626281 -0.54891718356 -0.82389754184 -0.23005938011 -0.51964118608 -0.82282787954 -0.30988398996 -0.49277670094 -0.81310702603 
-0.37588901037 -0.4688252438 -0.79931867403 -0.41968929279 -0.44824158348 -0.78926572227 -0.41874805993 -0.43059827279 -0.79952185072 
-0.2851122216 -0.40489961783 -0.86877345757 0.42863918191 -0.20078915607 -0.88088147133 0.95992534535 0.20816085361 -0.18764964795 
0.95157610743 0.30339146975 0.049563372144 0.93481880477 0.33835291562 0.1078476089 0.92321220254 0.36522714266 0.11953394227 
0.9116542492 0.39406243171 0.11662473933 0.89717198376 0.42771444289 0.11019431433 0.87817839537 0.46676862154 0.10454549183 
0.85361736352 0.51087966036 0.10168268939 0.82281101457 0.55904451527 0.10223142496 0.78523491769 0.60995726744 0.10657511873 
0.74076116767 0.6619620147 0.11436425826 0.68946562309 0.71337993053 0.12540426347 0.63192572625 0.76247349523 0.13893899947 
0.56885658687 0.80776844061 0.15463612107 0.50139959149 0.84799530295 0.171762673 0.43079805944 0.88225521281 0.18983880388 
0.35830685842 0.91000446833 0.20858586441 0.28519560369 0.93101547868 0.22775786724 0.21244749603 0.9452997738 0.24753666209 
0.14067315982 0.95294699549 0.2685201778 0.070291144802 0.95403828088 0.29132475622 0.0010598100136 0.94832521428 0.31729822686 
-0.067566651364 0.93508353425 0.34792748038 -0.13687295321 0.91250171749 0.38549501976 -0.2084504015 0.87724301436 0.43242701565 
-0.28482597139 0.82254831012 0.49222804018 -0.36918675448 0.73474334281 0.56908115459 -0.46206948188 0.58883199349 0.66315056915 
-0.55384172079 0.33913777132 0.76042417135 -0.59961400844 -0.045029214512 0.79902153333 -0.54209946883 -0.46383111384 0.70070597523 
-0.41828543257 -0.75023771695 0.51203580438 -0.30659891134 -0.89197430062 0.3322332834 -0.23208901055 -0.9539834773 0.18986894483 
-0.19100174414 -0.97857977777 0.076811146852 -0.17669881779 -0.98410395806 -0.017802458397 -0.18343011796 -0.97767986731 -0.10244739571 
-0.20716229357 -0.9612484934 -0.1818931501 -0.24408107607 -0.9346588916 -0.25852888553 -0.29039429881 -0.89736342001 -0.33228006807 
-0.34150799837 -0.84968153514 -0.40176308429 -0.39290278799 -0.79373301254 -0.46434395011 -0.44020378536 -0.73361671581 -0.51771337788 
-0.480251441 -0.67482324648 -0.56033216883 -0.51128481364 -0.62307649 -0.59191513492 -0.53289208068 -0.58330147043 -0.61301339704 
-0.54519768791 -0.55896285017 -0.62475596294 -0.54519768791 -0.55896285017 -0.62475596294 
FrenetBinormal 3 128 double
-0.48915135568 0.72108764503 -0.49067663428 -0.48915135568 0.72108764503 -0.49067663428 -0.48620621316 0.73123453072 -0.47843450897 
-0.48071581148 0.74782441002 -0.45789841709 -0.47127684317 0.77177180606 -0.42692671088 -0.45530992246 0.80446705636 -0.3814782166 
-0.42755199669 0.84802431179 -0.31313584389 -0.37561957427 0.90431512069 -0.20279077374 -0.26399711671 0.96452303683 -0.00091312420641 
0.013563940267 0.91484735913 0.40357196263 0.44418918884 0.36237503469 0.81937799504 0.58510239985 -0.20135557138 0.78556420207 
0.58542318545 -0.46399610542 0.66482126026 0.5657813488 -0.59987949032 0.56571729906 0.54549330297 -0.68331219789 0.48530557036 
0.52782377964 -0.73979493741 0.41725952143 0.51362254399 -0.77954293709 0.35847551036 0.50322546671 -0.80746463031 0.30783924451 
0.4966801808 -0.82637534077 0.26535371519 0.49365927698 -0.83827258477 0.23151585665 0.49337774722 -0.84478989175 0.2071435187 
0.49449431599 -0.84746720743 0.19306657863 0.49507567017 -0.8478399886 0.18991428206 0.49262202432 -0.8474355624 0.19793056541 
0.48414966376 -0.84769568631 0.21682049372 0.46646112718 -0.84981906251 0.24540085129 0.43642227614 -0.85453502792 0.28161229189 
0.39134488153 -0.86188023092 0.32250837392 0.32948776291 -0.87103248776 0.36433531172 0.2503822464 -0.88032191899 0.40291692647 