# vtk DataFile Version 4.2
vtk output
ASCII
DATASET POLYDATA
POINTS 128 float
0 0 0 -0.191607 0.232903 0.147987 -0.588054 0.669109 0.443732 
-0.965552 0.981655 0.701686 -1.32284 1.18315 0.923275 -1.71501 1.36934 1.15656 
-2.13754 1.53311 1.39667 -2.5733 1.64691 1.62776 -3.01904 1.71358 1.84774 
-3.475 1.74299 2.05777 -3.93854 1.73557 2.25503 -4.40634 1.68938 2.43567 
-4.87585 1.60481 2.59637 -5.34467 1.48294 2.73386 -5.80977 1.3245 2.84399 
-6.26784 1.13034 2.92235 -6.71514 0.902698 2.96447 -7.14776 0.644594 2.96606 
-7.56173 0.360677 2.92387 -7.95325 0.0563694 2.83548 -8.31996 -0.261868 2.70117 
-8.6601 -0.587487 2.52251 -8.97214 -0.91599 2.30258 -9.25443 -1.24417 2.04525 
-9.50348 -1.57201 1.75535 -9.7152 -1.9008 1.43815 -9.88652 -2.23164 1.0994 
-10.015 -2.56538 0.744959 -10.1 -2.90176 0.380048 -10.1417 -3.23995 0.00948167 
-10.1422 -3.57864 -0.363007 -10.1042 -3.91629 -0.734326 -10.0311 -4.25171 -1.1024 
-9.9269 -4.58392 -1.46574 -9.79528 -4.91249 -1.82339 -9.63981 -5.23736 -2.17474 
-9.46365 -5.55881 -2.51936 -9.26965 -5.87742 -2.85695 -9.06021 -6.19418 -3.18693 
-8.83744 -6.5103 -3.50859 -8.60309 -6.827 -3.82139 -8.35873 -7.14565 -4.12467 
-8.10571 -7.46946 -4.41487 -7.84527 -7.80257 -4.68693 -7.57858 -8.14653 -4.93936 
-7.30701 -8.50253 -5.17029 -7.03495 -8.88988 -5.34209 -6.77159 -9.33499 -5.39333 
-6.56336 -9.78882 -5.27701 -6.47738 -10.1535 -4.96442 -6.50527 -10.4077 -4.51347 
-6.59095 -10.5806 -4.03294 -6.70379 -10.7017 -3.56144 -6.83194 -10.7993 -3.08837 
-6.96869 -10.8872 -2.61145 -7.11083 -10.9691 -2.13496 -7.25552 -11.0498 -1.66025 
-7.40018 -11.1355 -1.18643 -7.5425 -11.2315 -0.713536 -7.68034 -11.3424 -0.242469 
-7.81149 -11.4727 0.22546 -7.93363 -11.6271 0.688565 -8.04437 -11.8095 1.14435 
-8.14124 -12.0233 1.58963 -8.22221 -12.2699 2.02101 -8.28567 -12.549 2.43505 
-8.33092 -12.8585 2.82955 -8.35807 -13.1941 3.20363 -8.36773 -13.5514 3.55791 
-8.3609 -13.9255 3.89443 -8.33837 -14.3121 4.21561 -8.30072 -14.7077 4.52418 
-8.24809 -15.1092 4.82277 -8.18021 -15.5139 5.11387 -8.09635 -15.9194 5.39957 
-7.9953 -16.3236 5.68147 -7.8754 -16.7246 5.96072 -7.73451 -17.1201 6.238 
-7.57044 -17.5079 6.51338 -7.38096 -17.8858 6.78632 -7.16417 -18.2514 7.0559 
-6.91861 -18.6019 7.32076 -6.6435 -18.9347 7.57941 -6.33889 -19.2472 7.83023 
-6.00582 -19.537 8.07198 -5.64664 -19.8026 8.30395 -5.26413 -20.0428 8.52599 
-4.86162 -20.2573 8.73875 -4.44239 -20.4461 8.94334 -4.00962 -20.6094 9.14149 
-3.56629 -20.7478 9.33512 -3.11515 -20.8621 9.52641 -2.65876 -20.9531 9.71762 
-2.19947 -21.0221 9.91109 -1.73952 -21.0705 10.1091 -1.28096 -21.1004 10.3139 
-0.825633 -21.1142 10.5274 -0.375059 -21.1149 10.7512 0.0694823 -21.1059 10.9865 
0.507081 -21.0911 11.2342 0.936975 -21.0745 11.495 1.35861 -21.0603 11.769 
1.77153 -21.0528 12.0564 2.17537 -21.0561 12.3564 2.56986 -21.0744 12.6681 
2.9549 -21.1111 12.9899 3.33037 -21.1695 13.3198 3.69628 -21.252 13.6552 
4.0526 -21.3605 13.9935 4.39927 -21.496 14.3322 4.73621 -21.6589 14.6686 
5.06319 -21.849 15.0005 5.37988 -22.0655 15.3262 5.68572 -22.3073 15.6443 
5.97999 -22.5732 15.954 6.26171 -22.8618 16.2549 6.52959 -23.1719 16.5467 
6.78158 -23.5031 16.83 7.01571 -23.8542 17.105 7.23079 -24.2221 17.3713 
7.42427 -24.6055 17.6293 7.58862 -25.0118 17.8827 7.71886 -25.4409 18.1319 
7.8223 -25.862 18.3651 7.89945 -26.2674 18.5806 7.91498 -26.7639 18.8259 
7.85687 -27.3589 19.1044 7.81347 -27.6615 19.2434 
LINES 1 129
128 0 1 2 3 4 5 6 7 8 9 10 11 12 13 14 15 16 17 18 19 20 21 22 23 24 25 26 27 28 29 30 31 32 33 34 35 36 37 38 39 40 41 42 43 44 45 46 47 48 49 50 51 52 53 54 55 56 57 58 59 60 61 62 63 64 65 66 67 68 69 70 71 72 73 74 75 76 77 78 79 80 81 82 83 84 85 86 87 88 89 90 91 92 93 94 95 96 97 98 99 100 101 102 103 104 105 106 107 108 109 110 111 112 113 114 115 116 117 118 119 120 121 122 123 124 125 126 127 

CELL_DATA 1
FIELD FieldData 2
Length 1 1 double
59.77310123 
Tortuosity 1 1 double
0.72801010489 
POINT_DATA 128
SCALARS MaximumInscribedSphereRadius float
LOOKUP_TABLE default
1.116 1.15764 1.19927 1.21114 1.22043 1.15187 1.08205 1.07293 1.06718 
1.1395 1.21731 1.23967 1.25707 1.21871 1.17427 1.08915 0.998766 1.14544 
1.32772 1.44268 1.54612 1.54033 1.51342 1.52532 1.54563 1.66481 1.80782 
1.78972 1.7287 1.61017 1.47481 1.3423 1.21069 1.15432 1.12429 1.14006 
1.17331 1.2821 1.42221 1.508 1.56938 1.52643 1.43275 1.38938 1.37237 
1.41233 1.48454 1.46317 1.38431 1.4463 1.58001 1.75869 1.96311 2.04069 
2.0407 1.98673 1.89729 1.80835 1.71977 1.68709 1.6967 1.79076 1.95321 
2.06619 2.13631 2.17 2.17 2.17 2.17 2.17 2.17 2.16947 
2.16835 2.1383 2.0733 2.00582 1.93513 1.88698 1.87009 1.86 1.86 
1.86018 1.86065 1.8629 1.86822 1.87285 1.8762 1.87664 1.87132 1.87633 
1.90337 1.9379 1.98968 2.02103 2.0013 1.98709 1.98787 2.02403 2.16537 
2.28854 2.35253 2.38247 2.29012 2.19768 2.10484 2.02306 1.99022 1.9884 
2.14101 2.2899 2.41774 2.53428 2.57765 2.61271 2.58506 2.55534 2.50713 
2.47206 2.58112 2.6844 2.70672 2.7176 2.52515 2.33451 2.2566 2.18434 
2.17717 2.17 
TEXTURE_COORDINATES TCoords 2 float
0 0 0.00787402 0 0.015748 0 0.023622 0 0.0314961 
0 0.0393701 0 0.0472441 0 0.0551181 0 0.0629921 0 
0.0708661 0 0.0787402 0 0.0866142 0 0.0944882 0 0.102362 
0 0.110236 0 0.11811 0 0.125984 0 0.133858 0 
0.141732 0 0.149606 0 0.15748 0 0.165354 0 0.173228 
0 0.181102 0 0.188976 0 0.19685 0 0.204724 0 
0.212598 0 0.220472 0 0.228346 0 0.23622 0 0.244094 
0 0.251969 0 0.259843 0 0.267717 0 0.275591 0 
0.283465 0 0.291339 0 0.299213 0 0.307087 0 0.314961 
0 0.322835 0 0.330709 0 0.338583 0 0.346457 0 
0.354331 0 0.362205 0 0.370079 0 0.377953 0 0.385827 
0 0.393701 0 0.401575 0 0.409449 0 0.417323 0 
0.425197 0 0.433071 0 0.440945 0 0.448819 0 0.456693 
0 0.464567 0 0.472441 0 0.480315 0 0.488189 0 
0.496063 0 0.503937 0 0.511811 0 0.519685 0 0.527559 
0 0.535433 0 0.543307 0 0.551181 0 0.559055 0 
0.566929 0 0.574803 0 0.582677 0 0.590551 0 0.598425 
0 0.606299 0 0.614173 0 0.622047 0 0.629921 0 
0.637795 0 0.645669 0 0.653543 0 0.661417 0 0.669291 
0 0.677165 0 0.685039 0 0.692913 0 0.700787 0 
0.708661 0 0.716535 0 0.724409 0 0.732283 0 0.740157 
0 0.748031 0 0.755906 0 0.76378 0 0.771654 0 
0.779528 0 0.787402 0 0.795276 0 0.80315 0 0.811024 
0 0.818898 0 0.826772 0 0.834646 0 0.84252 0 
0.850394 0 0.858268 0 0.866142 0 0.874016 0 0.88189 
0 0.889764 0 0.897638 0 0.905512 0 0.913386 0 
0.92126 0 0.929134 0 0.937008 0 0.944882 0 0.952756 
0 0.96063 0 0.968504 0 0.976378 0 0.984252 0 
0.992126 0 1 0 
FIELD FieldData 7
Curvature 1 128 double
0 0.034270757697 0.063747948346 0.0908916417 0.11487204686 0.13511165839 0.15140161922 0.16394068551 0.17330933785 
0.18029984155 0.18575871879 0.19041562184 0.19478129113 0.19911089713 0.20340559418 0.20747984019 0.21100657195 0.21363223521 
0.2150248928 0.21496629857 0.21336748714 0.21030171349 0.20595576887 0.20055970176 0.19437026929 0.18754443381 0.18016862422 
0.17227493081 0.1638170032 0.15476164012 0.1452027033 0.13521224514 0.1250382824 0.11497368841 0.10543515555 0.097037849885 
0.090626144099 0.08753652012 0.089498431658 0.098474128667 0.11635569111 0.14514485716 0.18764602484 0.24782508031 0.32994982392 
0.43459014347 0.54948156863 0.6404298549 0.66284253725 0.60149616619 0.48794254726 0.3664496727 0.26223581462 0.18071988402 
0.11853186928 0.07059410149 0.033240534286 0.012433404516 0.03073875077 0.052801855365 0.07215030077 0.088340136901 0.10111753235 
0.11029152066 0.11577244703 0.11771899348 0.11653339569 0.11281996709 0.10740235363 0.1012339944 0.095217501509 0.090216009846 
0.086966674604 0.085888776998 0.087096101093 0.090357452429 0.095213910282 0.10108546491 0.10740240036 0.11359064555 0.11913930001 
0.12358707283 0.12658661909 0.12790431266 0.12738264387 0.1251016826 0.12115891484 0.11579940289 0.10932657076 0.10202934188 
0.094198637906 0.086120401183 0.077968428982 0.070022744303 0.062402395324 0.055506629704 0.049679128878 0.045501589691 0.043551813603 
0.044236897327 0.047459678565 0.052692762932 0.059236371059 0.066484249616 0.073907607827 0.081171586495 0.087920538121 0.094006572834 
0.099271105413 0.10367576708 0.10723526793 0.1100087257 0.11222034108 0.11396298391 0.1154523935 0.11678379629 0.11797893002 
0.11883640224 0.11893733566 0.11764789924 0.11417029161 0.10766729086 0.09751328552 0.083429992758 0.065572285332 0.044577841618 
0.021431984944 0 
Torsion 1 128 double
0 0 -0.0162878359 -0.023283751782 -0.031419393014 -0.040756930973 -0.051219220027 -0.062596932793 -0.074376962362 
-0.08578172729 -0.095854361908 -0.10361369649 -0.10823661877 -0.10910252792 -0.10593514276 -0.098665538863 -0.087476055866 -0.072663601637 
-0.054570571919 -0.033901698345 -0.011550418043 0.011435573243 0.033588535107 0.053509525836 0.0699397459 0.081960838718 0.089463567666 
0.092947248131 0.093592145247 0.093248228623 0.093976894874 0.098348568483 0.10944453416 0.1308679348 0.16684972597 0.22080802435 
0.2912253098 0.36409075597 0.40915765231 0.39983799894 0.34318546967 0.26939939268 0.20196112588 0.14891444066 0.10960988463 
0.081199607274 0.061168076531 0.047644359815 0.039422908189 0.035323909523 0.034568269667 0.037458672776 0.045651239046 0.064087456727 
0.10694339635 0.23067682663 0.83237621974 4.9142242266 0.67993516952 0.20047579254 0.09780560597 0.063855298044 0.052075302066 
0.050553560038 0.055563783127 0.066066275059 0.08183895998 0.10321867416 0.13035495102 0.16276346768 0.19777033669 0.22944041725 
0.24987946635 0.25207505634 0.23483937036 0.20396915396 0.16795372707 0.13375129301 0.10556904811 0.084669035061 0.070675638776 
0.062880708171 0.060730880078 0.06299150553 0.069334110751 0.079326622309 0.092244608168 0.10816324413 0.12707782042 0.14907891855 
0.17414409318 0.20340993199 0.23841556382 0.28097418528 0.33508063371 0.40231614893 0.48205763986 0.55956578193 0.60438686862 
0.58880074047 0.52027348026 0.43171735751 0.35076522135 0.28453633092 0.23271757555 0.19157837212 0.1580457507 0.12936356266 
0.10350856014 0.079192533382 0.055354686139 0.031669017805 0.0082825928914 -0.014393427107 -0.035499449065 -0.053183170816 -0.066312845785 
-0.074600877603 -0.076818159428 -0.073659685958 -0.067467381174 -0.05879838872 -0.048499578998 -0.038308775846 -0.028684478442 -0.019661934987 
0 0 
Abscissas 1 128 double
0 0.50300571875 1.0060114375 1.5090184581 2.0120255914 2.5150313645 3.0180371157 3.5210435576 4.0240500378 
4.527054267 5.0300583378 5.5330635158 6.036068793 6.5390770529 7.0420856389 7.5450903513 8.0480945621 8.551098699 
9.0541028247 9.5571097062 10.06011706 10.563123002 11.06612867 11.569134258 12.072139828 12.575146259 13.078152897 
13.581159824 14.084166827 14.587170887 15.090174085 15.593178594 16.096183524 16.599189884 17.102196745 17.605201132 
18.108204575 18.611209562 19.114215189 19.617223064 20.12023195 20.623235746 21.126237067 21.629242491 22.132250063 
22.635255743 23.138260352 23.641265822 24.144271821 24.647275891 25.150278978 25.653281694 26.156284198 26.659290138 
27.162298179 27.665305823 28.168313208 28.671318524 29.17432238 29.677330957 30.180343103 30.683343403 31.186334109 
31.689332859 32.192338578 32.69535353 33.198377021 33.701387387 34.204384797 34.707393283 35.210413458 35.713422726 
36.21641968 36.719425541 37.222442167 37.725447123 38.228436974 38.731440279 39.234462249 39.737470747 40.240459216 
40.743454183 41.24645951 41.749463979 42.25246698 42.755475347 43.258493571 43.761503828 44.264498345 44.767497259 
45.270505546 45.773512518 46.276516456 46.779519876 47.282521998 47.785523834 48.288524891 48.791530137 49.294547831 
49.797559269 50.300550321 50.803547726 51.306567947 51.80958664 52.312599253 52.815607299 53.318595098 53.821586262 
54.324594179 54.827603811 55.330623118 55.833638629 56.336629578 56.839621156 57.342617482 57.845616214 58.34863651 
58.851655429 59.354659242 59.857663318 60.360671086 60.863679903 61.366707367 61.869734771 62.372758425 62.875777641 
63.378745746 63.881713851 
ParallelTransportNormals 3 128 double
-0.74874603122 -0.66285698361 0 -0.67990840065 -0.72376376438 -0.04789004212 -0.61107077009 -0.78467054515 -0.09578008424 
-0.54237002046 -0.82419954586 -0.13833014722 -0.47368111447 -0.86187883313 -0.18041816824 -0.39698752526 -0.88574452028 -0.22217083767 
-0.32016522422 -0.90938809074 -0.26391811479 -0.24514196622 -0.91816869155 -0.29977440098 -0.17021841651 -0.92612554262 -0.33530419103 
-0.093094540466 -0.92194022063 -0.36651089526 -0.015815863304 -0.91690065172 -0.39741345437 0.065245063179 -0.89948204814 -0.42309305819 
0.14664480059 -0.88095454036 -0.44830479377 0.23166875151 -0.84900900473 -0.46560530967 0.31708889062 -0.81559665044 -0.48204099471 
0.40196659162 -0.76961679568 -0.48645341985 0.48677403676 -0.72200921514 -0.48930860851 0.56336510823 -0.66740466132 -0.47776222185 
0.63872203489 -0.61174912337 -0.46405263884 0.69937608294 -0.55794961631 -0.43891569192 0.75750966588 -0.50446828238 -0.41181979039 
0.80427106727 -0.45365231059 -0.37618816434 0.84883266308 -0.40335191961 -0.33890540967 0.88683517103 -0.34968839436 -0.29071583122 
0.92341612188 -0.29529597396 -0.24016240689 0.95027472693 -0.23784335583 -0.18147284305 0.97478955369 -0.17965301193 -0.12082188969 
0.98720337468 -0.12241901493 -0.059092602799 0.99639301887 -0.065439825791 0.0029239939275 0.99543942331 -0.013706185517 0.059613744603 
0.99151458732 0.036490885848 0.11474311213 0.98183420706 0.079353701629 0.16168146151 0.97030729499 0.11986349298 0.20599191422 
0.95680796201 0.15345519093 0.24246020835 0.94261756634 0.18462304704 0.27618090269 0.92857960749 0.21035452412 0.30363811579 
0.91459982627 0.23401120266 0.32870486612 0.90155464734 0.25388068508 0.349232599 0.88889703706 0.27217966152 0.36787805437 
0.87722952242 0.28809672149 0.38336697633 0.86600700414 0.30294323425 0.39743720116 0.85513722089 0.31706320584 0.40965901119 
0.84443894068 0.33082992639 0.4209821048 0.83219764438 0.34716714845 0.43173241439 0.81914822136 0.36485062411 0.44218273875 
0.79839337865 0.39885779969 0.44862048329 0.77327479262 0.44210943431 0.45278581841 0.75404752121 0.49252370978 0.42994613051 
0.73843849307 0.54733703344 0.39052088422 0.7351472234 0.57272001874 0.36188466524 0.73812824612 0.58311686128 0.33874229758 
0.73992811487 0.58754400739 0.32753574891 0.74105154676 0.58855235898 0.32316474258 0.74111175406 0.58871173705 0.32275061376 
0.74052174729 0.5883519261 0.32475630996 0.73899218486 0.58740901076 0.32983745149 0.73684521958 0.5860829246 0.3369395363 
0.73383534871 0.58378809318 0.34717266322 0.73021678184 0.58080990619 0.35961443588 0.72598267789 0.57609144446 0.37517333926 
0.72128296364 0.57005658792 0.39309013164 0.71658939672 0.56159839887 0.41306462863 0.71190080865 0.55117750113 0.43470570446 
0.70802533552 0.53890627909 0.45582927924 0.70485410244 0.52503248847 0.47650464561 0.70278422762 0.51177906218 0.49385442648 
0.70173287421 0.49909934052 0.50812875035 0.70126849807 0.48951220794 0.51820930036 0.7013835204 0.4829777342 0.5241502248 
0.70135938663 0.48048454546 0.52652237217 0.70118841263 0.48225579991 0.52512867597 0.7002357457 0.48822597908 0.52074536647 
0.69840072589 0.49893578568 0.51298746607 0.69512374241 0.51365973622 0.50252762336 0.69010395445 0.53323531254 0.48880212472 
0.68279757911 0.5565008488 0.47245214511 0.67253153516 0.58454252384 0.45270514071 0.65911926833 0.615296936 0.43074744106 
0.64134220175 0.64981476697 0.40572281245 0.61983232686 0.68559063753 0.37927269661 0.59277353761 0.7232366159 0.35070355778 
0.56206429949 0.760479306 0.32175209963 0.52553556232 0.7970790791 0.29219115288 0.48667051049 0.83162149018 0.26343957615 
0.44381001529 0.86264550813 0.23607214178 0.40009467581 0.89105515717 0.2099583268 0.35480922958 0.91466295132 0.18614705544 
0.30964781872 0.93588435143 0.16342031507 0.26473150445 0.95239018482 0.14283663164 0.22050702728 0.96696353515 0.12299481034 
0.17775750637 0.97741694452 0.10473459574 0.13633603228 0.98636619117 0.087042190691 0.097976611107 0.99184731776 0.070658973569 
0.061848471578 0.99628941658 0.054986234522 0.03130022483 0.99813315967 0.041090228362 0.0038314500266 0.99948368653 0.028328577252 
-0.015257656518 0.99949210396 0.018653662819 -0.030871572474 0.99945837405 0.010645562073 -0.036157754336 0.99929938866 0.0075909762781 
-0.038136518879 0.99922724904 0.0066231831818 -0.029338958387 0.99943807286 0.012454639842 -0.017759648509 0.99948745836 0.020565433891 
0.003809904545 0.9989570619 0.036862132433 0.02734332944 0.99778946536 0.055212946594 0.058687227968 0.99408767377 0.081733141033 
0.091078252012 0.98933843185 0.10966786451 0.12811013284 0.97994689353 0.14387177595 0.16539942993 0.96939697368 0.17868214359 
0.20397039803 0.95307949254 0.21651204598 0.24227514251 0.93579977587 0.25428691278 0.27907773481 0.91309069784 0.29175124427 
0.315409977 0.88971439364 0.32885710425 0.34869992371 0.86202236984 0.36364431643 0.38153872224 0.83385824245 0.39807940586 
0.41097667496 0.80213530311 0.42986012296 0.44004924887 0.77000059942 0.46142406461 0.46584632228 0.73417456411 0.49104468593 
0.4913230655 0.69794905975 0.52057008082 0.51328825438 0.65734445732 0.54905157535 0.53499271023 0.61614537805 0.57764128678 
0.55304715159 0.56662418828 0.60774593196 0.57064268368 0.51712656131 0.6376586453 0.58008777642 0.46804742044 0.66416256105 
0.5893838331 0.418661763 0.69077701946 0.5893759006 0.35014095944 0.72429240924 0.58936860195 0.28709536197 0.75512972671 
0.58936860195 0.28709536197 0.75512972671 0.58936860195 0.28709536197 0.75512972671 
FrenetTangent 3 128 double
-0.75805150469 0.45574726926 0.46653225268 -0.75805150469 0.45574726926 0.46653225268 -0.77047683354 0.43558897278 0.46543280478 
-0.78921684564 0.40351171664 0.46294175129 -0.8125205532 0.36037661933 0.45819105498 -0.8383391501 0.30741768814 0.45020199291 
-0.86458880844 0.24621349323 0.4380240953 -0.88938242406 0.17858085855 0.42084175261 -0.9111817033 0.10641413117 0.39802504476 
-0.92884255681 0.031527144222 0.36913079503 -0.94156802321 -0.044452925006 0.33387661662 -0.94880967456 -0.12012150592 0.29211474677 
-0.95016148974 -0.19426978596 0.24382861538 -0.94528023565 -0.26582839408 0.18915745025 -0.93384653352 -0.33381473101 0.12844600889 
-0.91556768193 -0.39730941226 0.062298079793 -0.89021072818 -0.45547184304 -0.0083821013467 -0.85765095124 -0.50759015984 -0.08238370879 
-0.81791769722 -0.55314980209 -0.15822748503 -0.77122339459 -0.59189881348 -0.23424403991 -0.71797239419 -0.62387965114 -0.30869049561 
-0.65874741832 -0.64941913886 -0.37987711295 -0.59427847752 -0.66907808218 -0.44628198608 -0.52541675132 -0.68356137744 -0.50663703054 
-0.4531069276 -0.69362534933 -0.55998034513 -0.3783694583 -0.69999656694 -0.60567430134 -0.30229190507 -0.70331748607 -0.64340043357 
-0.22599923399 -0.704132703 -0.67314298838 -0.15062369831 -0.70290110685 -0.69515648274 -0.077265386527 -0.70002923058 -0.70992192273 
-0.0069175315007 -0.69591421093 -0.71809160891 0.059581782291 -0.69097883152 -0.72041534243 0.12158757364 -0.68570017205 -0.71765711589 
0.1786768325 -0.68062806008 -0.7105068848 0.2306354558 -0.67639354294 -0.69949915053 0.27744189616 -0.67371297763 -0.68493563057 
0.3192192919 -0.67338617638 -0.66682089135 0.35618861163 -0.67628146539 -0.64480466229 0.38860834285 -0.68331269421 -0.61811594203 
0.41669152176 -0.6953904789 -0.58549146667 0.44050481891 -0.71334240935 -0.54506707068 0.45980530937 -0.73778085364 -0.49422514048 
0.47380606046 -0.76884246558 -0.42940549623 0.48081926634 -0.80568254797 -0.34596020728 0.4777790661 -0.84552793029 -0.23834781956 
0.45985790327 -0.88218556576 -0.10138706211 0.42094091325 -0.90466625733 0.06623979466 0.35640645953 -0.89853328866 0.25614910652 
0.26831316493 -0.85333536812 0.44701990452 0.16797873878 -0.77243815783 0.61247239583 0.070501861326 -0.67282990653 0.73643017621 
-0.013512410527 -0.57366625035 0.81897768466 -0.080437278711 -0.48732691664 0.86950694104 -0.13111319944 -0.41881560528 0.89855596248 
-0.16796503847 -0.36875844571 0.91422368957 -0.19347209814 -0.33594756058 0.92179595561 -0.20965375397 -0.31865085796 0.92439544253 
-0.21801696767 -0.31510418737 0.92367632475 -0.2196552973 -0.32361406046 0.92033987757 -0.21536768023 -0.34251382236 0.91449496653 
-0.20577358334 -0.37009114893 0.90591929766 -0.1914067188 -0.40453234263 0.89426900414 -0.17278244302 -0.44391705618 0.87925188349 
-0.15044201524 -0.4862592816 0.8607665834 -0.12496629298 -0.52959655246 0.83899399118 -0.096955671717 -0.5721097613 0.81442618987 
-0.066981707041 -0.61224277932 0.78782753829 -0.035543386837 -0.64877906498 0.76014629677 -0.0030192315804 -0.68087593219 0.7323925513 
0.030373057767 -0.70805321078 0.7055055833 0.064584510556 -0.7301176134 0.68026253138 0.099710477841 -0.74707348152 0.65722068882 
0.13596069465 -0.75904513786 0.63668294167 0.1736121346 -0.76619721036 0.61870886656 0.21294923239 -0.76868067332 0.60314396863 
0.2542118116 -0.76660084121 0.58966049987 0.29753949625 -0.760003211 0.57781084053 0.34292177233 -0.74888238312 0.56708009515 
0.39016642459 -0.73320684999 0.55693615096 0.438879958 -0.71294951756 0.5468888076 0.48846692926 -0.688131338 0.53654013893 
0.53815675843 -0.65886874935 0.52562274921 0.58705835649 -0.6254075714 0.51403098711 0.63423289516 -0.58813539807 0.50184199529 
0.67876575305 -0.54759551477 0.48930175218 0.71984681523 -0.50445842377 0.47680421693 0.75682815097 -0.45948402907 0.46485005855 
0.78925087998 -0.41349509986 0.45398772103 0.81685955602 -0.36732147895 0.44476442847 0.83958084462 -0.32177300903 0.43768268872 
0.85749339612 -0.27762465956 0.43316235295 0.87080039565 -0.23560207521 0.43150704871 0.87978810936 -0.19639067255 0.43290135869 
0.88480232831 -0.16062877419 0.43740511738 0.88622581144 -0.1289224241 0.44495260388 0.88446033278 -0.10183219235 0.45536811959 
0.87991412242 -0.079854956749 0.46837412721 0.87298420423 -0.063432836813 0.48360609424 0.86404546345 -0.052928975943 0.50062357176 
0.85343838194 -0.048613257668 0.51892165054 0.84145657764 -0.050646113975 0.53794590721 0.82833825985 -0.059063644905 0.55710610579 
0.8142603283 -0.073759306434 0.57579482671 0.79933956937 -0.094498837721 0.59340224343 0.78363365936 -0.12090589336 0.60934395284 
0.76714422905 -0.15247138607 0.62309085073 0.7498254877 -0.18856444079 0.63419649137 0.7315904611 -0.22845676516 0.64232616612 
0.71231331543 -0.27136682759 0.64727875413 0.69183565145 -0.3164869195 0.64899881446 0.66996707279 -0.36303003973 0.64757494673 
0.64648767621 -0.41025406125 0.64323035511 0.62114084925 -0.45750806564 0.63629428354 0.59364626528 -0.50423085702 0.62716453547 
0.56371606123 -0.54993786478 0.61627311088 0.53107475663 -0.59420848718 0.60404956472 0.49551936374 -0.636648673 0.59087987555 
0.45698911414 -0.67684939403 0.57709258127 0.41565515951 -0.71434655958 0.56297405019 0.37203897135 -0.7486284506 0.54876447292 
0.3270965865 -0.77917134328 0.53469602665 0.28224583932 -0.80549786482 0.52106667131 0.23932997127 -0.82728138669 0.50825846976 
0.20046743097 -0.84442941747 0.49674114792 0.1678221168 -0.85709098469 0.48706342613 0.14334754877 -0.86559982111 0.47977956392 
0.12855106226 -0.8703514423 0.47535564716 0.12855106226 -0.8703514423 0.47535564716 
FrenetNormal 3 128 double
-0.53183120887 -0.84601079393 -0.037700156691 -0.53183120887 -0.84601079393 -0.037700156691 -0.51578085006 -0.85504175877 -0.053606953603 
-0.49008313129 -0.86810429508 -0.078825486246 -0.45530155026 -0.88316700312 -0.11276765019 -0.41231713756 -0.8978043065 -0.15473204355 
-0.36227760975 -0.90950691496 -0.20384333475 -0.30649182803 -0.91594603414 -0.25904752826 -0.24629297984 -0.91513710377 -0.31916116523 
-0.18284768067 -0.90557474416 -0.38275463213 -0.11707153476 -0.88625827928 -0.44815233812 -0.049588887866 -0.85673413034 -0.51336884606 
0.019198576452 -0.81708546248 -0.5761968081 0.08902749696 -0.76793819653 -0.63430673266 0.15968169301 -0.71044019297 -0.6854024286 
0.23090403769 -0.64616128423 -0.72743310355 0.30239081372 -0.57705514301 -0.75866142495 0.37375030264 -0.50526350388 -0.77782999616 
0.44456611656 -0.43306975637 -0.78409919916 0.5144002606 -0.3627234219 -0.77706118878 0.58272534486 -0.296161612 -0.75678231483 
0.64894304714 -0.23496883217 -0.72364533404 0.71228063205 -0.18016620262 -0.67837780082 0.77170787538 -0.13207843297 -0.62211111758 
0.82605125242 -0.090516197242 -0.55627883872 0.87404010919 -0.054734959673 -0.48276078106 0.91457250658 -0.023761839612 -0.40372330276 
0.94692750382 0.003356247629 -0.32142967833 0.97086974258 0.027370434203 -0.23803949731 0.98667884742 0.048555092912 -0.15526511202 
0.99502994725 0.066545127915 -0.074075299765 0.9967552596 0.080310072026 0.0054078458874 0.99256650061 0.087863076909 0.08421295378 
0.98259259007 0.086110678145 0.16461091415 0.96564969022 0.070671190472 0.25005251172 0.93799929987 0.035745016552 0.34478922146 
0.89185053027 -0.024481143887 0.45166725058 0.8156468745 -0.11166030564 0.56767257487 0.7006281077 -0.21654843097 0.67987280557 
0.553905703 -0.31647192001 0.77008700549 0.39871521627 -0.38852894754 0.83070538294 0.25623305384 -0.42264774354 0.86931784003 
0.13323064129 -0.41941648745 0.89796403396 0.025471364133 -0.38156155516 0.92399241838 -0.074602815736 -0.30939059249 0.94800415672 
-0.17321087847 -0.20109525608 0.96413624014 -0.27224972779 -0.05634422698 0.96057556382 -0.36708094447 0.11744718435 0.92274467709 
-0.44744556809 0.30054752427 0.84229665158 -0.50433927967 0.46649326084 0.72665392627 -0.53687157843 0.59662506407 0.59649596914 
-0.55205750996 0.68718366811 0.47224052343 -0.55929575627 0.74413090422 0.36531829191 -0.56750438291 0.77488770088 0.27836635287 
-0.58605829715 0.78306806205 0.20818281039 -0.63243815241 0.76099396117 0.14460350772 -0.76613384885 0.64094674251 0.047182612492 
-0.80325432504 -0.47961049824 -0.35320852096 0.10035520236 -0.94587019382 -0.30863961152 0.27579896884 -0.91968057844 -0.2795041367 
0.34459615262 -0.89384063498 -0.28688396759 0.38670563376 -0.8685003483 -0.31010626858 0.41971165641 -0.84075854408 -0.34200467254 
0.44968815173 -0.80904763891 -0.37844746553 0.47944225333 -0.77257080104 -0.41625651118 0.51087345099 -0.73086737909 -0.45259384801 
0.54567026792 -0.68353123713 -0.48479790282 0.5853576329 -0.63000941137 -0.51033771485 0.63141733606 -0.5692277222 -0.5265851764 
0.68446593574 -0.49963962669 -0.53091112839 0.74389244147 -0.41916179317 -0.52050689397 0.80594629316 -0.32672115782 -0.49366370899 
0.86424290335 -0.22331796412 -0.45079184876 0.91114937479 -0.11344015098 -0.39615419847 0.9413149416 -0.0040484419001 -0.33750524566 
0.9539591956 0.098403774816 -0.28333469648 0.95198151766 0.19046174347 -0.23969879913 0.93936066922 0.2717850454 -0.20912776531 
0.91931112347 0.34395010309 -0.19122077514 0.89372932114 0.40929540906 -0.1836441359 0.86349564422 0.4697079418 -0.1837109736 
0.82891655116 0.52664119497 -0.18853753732 0.79009475048 0.58098051722 -0.1954787044 0.74704139177 0.63341148029 -0.2017896321 
0.69998445981 0.68391170502 -0.20563690272 0.64899422433 0.73278836126 -0.20451824952 0.59434285251 0.77972754284 -0.19693027346 
0.53610246962 0.82451232373 -0.18103472067 0.474262812 0.86656734065 -0.15535710242 0.40846014658 0.90510137005 -0.11811781658 
0.33823033023 0.93860408404 -0.067989831181 0.26277911021 0.96484969461 -0.0034937154055 0.18086607919 0.98047105907 0.077226703438 
0.0911700109 0.98023956546 0.17555176847 -0.0080344778376 0.95607284358 0.29301905218 -0.11760889966 0.89573901178 0.42874207805 
-0.23591921843 0.78224004636 0.57657838344 -0.3543838912 0.59876577906 0.71825594288 -0.45474395382 0.34452596596 0.82128545296 
-0.51659417909 0.053082363936 0.85458335858 -0.53465470037 -0.22189842404 0.81541734148 -0.52176107539 -0.44346366597 0.72876975594 
-0.49519907973 -0.60584777998 0.62267675316 -0.46644720097 -0.7201365219 0.51364423342 -0.44169641234 -0.79817449017 0.40966054554 
-0.42301519683 -0.85045501894 0.31270497921 -0.4113877541 -0.88358833916 0.22367780998 -0.40661557422 -0.90247451446 0.14213910633 
-0.40870850134 -0.91011210435 0.068215236238 -0.41740355806 -0.90871941848 0.0018133362299 -0.43268504192 -0.89975683629 -0.0567564098 
-0.45449867292 -0.88427415964 -0.10719219609 -0.48276541236 -0.86294552954 -0.14920646659 -0.51709570081 -0.83617658603 -0.18281343815 
-0.55693002031 -0.80407019095 -0.20808671392 -0.60109726483 -0.7666490184 -0.22567977489 -0.6477065029 -0.72408995958 -0.23700214457 
-0.69481010333 -0.6767205607 -0.24349168987 -0.74038954979 -0.62525729264 -0.24673190423 -0.78207978439 -0.57123932203 -0.24907197316 
-0.81865179598 -0.51627807024 -0.25152771443 -0.84941395667 -0.46228735924 -0.25453158486 -0.87387122498 -0.41167927003 -0.25859091395 
-0.89228514404 -0.36672828011 -0.2633203188 -0.90538951515 -0.32946758407 -0.26780764907 -0.91382229427 -0.30189585089 -0.27163893262 
-0.91840396501 -0.2853379543 -0.27407372893 -0.91840396501 -0.2853379543 -0.27407372893 
FrenetBinormal 3 128 double
0.37750957802 -0.27669507243 0.88370037648 0.37750957802 -0.27669507243 0.88370037648 0.37461388613 -0.28136424356 0.8834583175 
0.3700747154 -0.28909034469 0.88287681906 0.36402039634 -0.30024113117 0.8816713754 0.35662592093 -0.31534392692 0.87941808048 
0.34819696407 -0.33492698816 0.87554713569 0.3392074043 -0.3593768767 0.86935987794 0.33028422859 -0.38884458848 0.86006523843 
0.32220836478 -0.42301350088 0.84690102594 0.31582259802 -0.46105335902 0.82926828392 0.31193131242 -0.50157497318 0.80692093951 
0.31116644754 -0.54279885525 0.78009284362 0.3138779713 -0.58275740339 0.74958283593 0.32005063468 -0.61955020585 0.71674621287 
0.32927062607 -0.65162936221 0.68334473665 0.34071198278 -0.67790321 0.6514311803 0.35319337071 -0.6978975722 0.62305170059 
0.36520077844 -0.71167118992 0.60012707726 0.37497579592 -0.71978296299 0.58421369264 0.38071881178 -0.72323058597 0.57618634649 
0.38068984807 -0.72321810679 0.57622114642 0.37348278724 -0.72102334177 0.58364025586 0.35833530737 -0.71784338878 0.59690591945 
0.33516181246 -0.71462626093 0.61398360455 0.30477933093 -0.71204556768 0.63253511284 0.26865728045 -0.71047863358 0.65041784792 
0.22858838279 -0.71006047078 0.66600411341 0.1863449609 -0.71076078488 0.67830278064 0.14316044182 -0.71246156337 0.68695240637 