# vtk DataFile Version 4.2
vtk output
ASCII
DATASET POLYDATA
POINTS 128 float
0 0 0 -0.323475 0.0504282 0.084727 -0.95217 0.149874 0.26155 
-1.46858 0.234265 0.434977 -1.89257 0.302483 0.60402 -2.34144 0.367566 0.789553 
-2.81093 0.425624 0.98969 -3.2706 0.469056 1.19752 -3.72159 0.494318 1.41146 
-4.17254 0.498639 1.63137 -4.62241 0.477035 1.85645 -5.06728 0.42385 2.08557 
-5.50421 0.333538 2.31726 -5.93022 0.200966 2.54978 -6.34054 0.0231429 2.78046 
-6.73009 -0.201434 3.00629 -7.09598 -0.469836 3.22387 -7.43674 -0.777224 3.42973 
-7.75466 -1.11701 3.62085 -8.05378 -1.48208 3.79431 -8.33999 -1.86637 3.94668 
-8.6199 -2.26427 4.07403 -8.89993 -2.6706 4.17041 -9.18587 -3.08033 4.22915 
-9.47935 -3.48861 4.24495 -9.77967 -3.89092 4.21371 -10.0828 -4.28504 4.13618 
-10.3829 -4.67018 4.01574 -10.6742 -5.04882 3.8585 -10.9506 -5.42518 3.67178 
-11.2052 -5.80455 3.46189 -11.4305 -6.19257 3.23439 -11.617 -6.59254 2.99299 
-11.7544 -7.00591 2.74034 -11.8328 -7.42878 2.4784 -11.8435 -7.85387 2.20879 
-11.7858 -8.27182 1.93329 -11.6642 -8.6724 1.65374 -11.4881 -9.05014 1.37138 
-11.2695 -9.40303 1.08712 -11.0187 -9.73316 0.802537 -10.7444 -10.0452 0.519485 
-10.4527 -10.3409 0.236429 -10.1478 -10.6208 -0.0498111 -9.83455 -10.8951 -0.331528 
-9.51779 -11.1797 -0.59486 -9.19627 -11.4617 -0.857944 -8.86523 -11.7109 -1.1582 
-8.54156 -11.9838 -1.43519 -8.26038 -12.3981 -1.55407 -8.09484 -12.8814 -1.43636 
-8.14383 -13.1712 -1.0795 -8.34525 -13.2431 -0.584041 -8.55441 -13.2089 -0.0953997 
-8.72799 -13.1295 0.359281 -8.88158 -13.0325 0.819746 -9.0182 -12.9252 1.294 
-9.13258 -12.8024 1.77003 -9.22213 -12.6675 2.24539 -9.28621 -12.5295 2.72401 
-9.32436 -12.3954 3.20718 -9.33634 -12.2709 3.69432 -9.3232 -12.1646 4.18554 
-9.28712 -12.0872 4.68139 -9.23306 -12.0532 5.18051 -9.16829 -12.0798 5.67968 
-9.10325 -12.1788 6.16982 -9.05063 -12.3573 6.63737 -9.01764 -12.6087 7.07333 
-9.00653 -12.9151 7.47307 -9.01482 -13.2608 7.83849 -9.03591 -13.6321 8.17712 
-9.06366 -14.0203 8.49528 -9.09249 -14.4206 8.7979 -9.11723 -14.8297 9.08876 
-9.13309 -15.2457 9.37044 -9.13567 -15.6671 9.6444 -9.12092 -16.0931 9.91092 
-9.08525 -16.5226 10.1697 -9.02554 -16.9546 10.4199 -8.9395 -17.3876 10.6604 
-8.82581 -17.8202 10.8901 -8.68442 -18.2505 11.1083 -8.5167 -18.677 11.3152 
-8.32457 -19.098 11.5115 -8.11045 -19.5124 11.6991 -7.87631 -19.9188 11.8799 
-7.62352 -20.316 12.056 -7.35293 -20.7025 12.2295 -7.06468 -21.0765 12.402 
-6.75863 -21.4359 12.5748 -6.43423 -21.7784 12.7487 -6.09096 -22.1013 12.9238 
-5.7284 -22.4019 13.0998 -5.34655 -22.6777 13.2758 -4.94606 -22.9266 13.4504 
-4.52808 -23.1471 13.6223 -4.09443 -23.3386 13.7901 -3.64716 -23.5009 13.9526 
-3.18871 -23.6353 14.1093 -2.72143 -23.7431 14.2603 -2.24757 -23.8264 14.4061 
-1.76921 -23.8873 14.548 -1.28819 -23.9281 14.6882 -0.806208 -23.9512 14.8288 
-0.324762 -23.9589 14.973 0.154709 -23.9535 15.1237 0.630814 -23.9368 15.284 
1.10217 -23.911 15.4566 1.5674 -23.8779 15.644 2.02513 -23.8394 15.8482 
2.47406 -23.7973 16.0704 2.91291 -23.7532 16.3115 3.34058 -23.7087 16.572 
3.75606 -23.6652 16.8517 4.15859 -23.624 17.1499 4.5478 -23.5862 17.4655 
4.92427 -23.5538 17.7974 5.28844 -23.5286 18.144 5.63985 -23.5109 18.5016 
5.97982 -23.5024 18.868 6.31583 -23.5103 19.2465 6.65035 -23.5384 19.6349 
6.96489 -23.577 20.0092 7.2582 -23.6259 20.3631 7.60947 -23.731 20.7744 
8.0326 -23.9042 21.251 8.24955 -24.0015 21.4918 
LINES 1 129
128 0 1 2 3 4 5 6 7 8 9 10 11 12 13 14 15 16 17 18 19 20 21 22 23 24 25 26 27 28 29 30 31 32 33 34 35 36 37 38 39 40 41 42 43 44 45 46 47 48 49 50 51 52 53 54 55 56 57 58 59 60 61 62 63 64 65 66 67 68 69 70 71 72 73 74 75 76 77 78 79 80 81 82 83 84 85 86 87 88 89 90 91 92 93 94 95 96 97 98 99 100 101 102 103 104 105 106 107 108 109 110 111 112 113 114 115 116 117 118 119 120 121 122 123 124 125 126 127 

CELL_DATA 1
FIELD FieldData 2
Length 1 1 double
58.925788507 
Tortuosity 1 1 double
0.77183397831 
POINT_DATA 128
SCALARS MaximumInscribedSphereRadius float
LOOKUP_TABLE default
0.98 0.966998 0.953997 0.936525 0.918836 0.864515 0.809269 0.75842 0.707857 
0.681752 0.657598 0.691495 0.731452 0.903406 1.09212 1.24588 1.39437 1.39444 
1.36845 1.3217 1.27075 1.25268 1.24216 1.30929 1.39652 1.54645 1.71448 
1.75601 1.75706 1.7007 1.62406 1.53701 1.44592 1.3612 1.27919 1.32996 
1.44219 1.53755 1.62443 1.64029 1.61741 1.59518 1.57333 1.56036 1.55304 
1.55468 1.56269 1.60037 1.65805 1.72848 1.81423 1.80516 1.75821 1.68866 
1.60953 1.53417 1.46067 1.38895 1.31818 1.30552 1.32619 1.38006 1.45455 
1.5039 1.53635 1.55679 1.5685 1.61514 1.68895 1.75739 1.82133 1.85385 
1.85797 1.86 1.86 1.86 1.86 1.87181 1.89699 1.93986 2.00435 
2.05305 2.08095 2.07582 2.02371 1.95479 1.86001 1.74814 1.60785 1.48006 
1.37481 1.34557 1.46527 1.58537 1.7063 1.7536 1.62941 1.51466 1.42398 
1.38566 1.49409 1.58573 1.62544 1.60568 1.38168 1.16478 0.975075 0.830641 
0.881856 0.941554 1.04293 1.12609 1.10621 1.08293 1.03725 1.00144 1.04338 
1.08801 1.15853 1.22711 1.27145 1.31536 1.35252 1.38976 1.43033 1.47086 
1.51043 1.55 
TEXTURE_COORDINATES TCoords 2 float
0 0 0.00787402 0 0.015748 0 0.023622 0 0.0314961 
0 0.0393701 0 0.0472441 0 0.0551181 0 0.0629921 0 
0.0708661 0 0.0787402 0 0.0866142 0 0.0944882 0 0.102362 
0 0.110236 0 0.11811 0 0.125984 0 0.133858 0 
0.141732 0 0.149606 0 0.15748 0 0.165354 0 0.173228 
0 0.181102 0 0.188976 0 0.19685 0 0.204724 0 
0.212598 0 0.220472 0 0.228346 0 0.23622 0 0.244094 
0 0.251969 0 0.259843 0 0.267717 0 0.275591 0 
0.283465 0 0.291339 0 0.299213 0 0.307087 0 0.314961 
0 0.322835 0 0.330709 0 0.338583 0 0.346457 0 
0.354331 0 0.362205 0 0.370079 0 0.377953 0 0.385827 
0 0.393701 0 0.401575 0 0.409449 0 0.417323 0 
0.425197 0 0.433071 0 0.440945 0 0.448819 0 0.456693 
0 0.464567 0 0.472441 0 0.480315 0 0.488189 0 
0.496063 0 0.503937 0 0.511811 0 0.519685 0 0.527559 
0 0.535433 0 0.543307 0 0.551181 0 0.559055 0 
0.566929 0 0.574803 0 0.582677 0 0.590551 0 0.598425 
0 0.606299 0 0.614173 0 0.622047 0 0.629921 0 
0.637795 0 0.645669 0 0.653543 0 0.661417 0 0.669291 
0 0.677165 0 0.685039 0 0.692913 0 0.700787 0 
0.708661 0 0.716535 0 0.724409 0 0.732283 0 0.740157 
0 0.748031 0 0.755906 0 0.76378 0 0.771654 0 
0.779528 0 0.787402 0 0.795276 0 0.80315 0 0.811024 
0 0.818898 0 0.826772 0 0.834646 0 0.84252 0 
0.850394 0 0.858268 0 0.866142 0 0.874016 0 0.88189 
0 0.889764 0 0.897638 0 0.905512 0 0.913386 0 
0.92126 0 0.929134 0 0.937008 0 0.944882 0 0.952756 
0 0.96063 0 0.968504 0 0.976378 0 0.984252 0 
0.992126 0 1 0 
FIELD FieldData 7
Curvature 1 128 double
0 0.01302613056 0.024647160145 0.036178609068 0.04773650545 0.059507017252 0.071656835665 0.084244518153 0.097143341822 
0.1100045721 0.1222560708 0.13315985034 0.14193063613 0.14788266957 0.15065781957 0.1503700881 0.14768215349 0.14372140175 
0.13983106871 0.13721457963 0.13654622132 0.13775531342 0.14015523756 0.14281183253 0.14499178751 0.1465044683 0.14782999992 
0.14995506018 0.15400938386 0.16076167459 0.17015498206 0.1812010603 0.19215414606 0.20086036291 0.20527782917 0.20385877328 
0.19607747008 0.18239704152 0.16418151839 0.14338089047 0.12246207334 0.10492874462 0.096730745369 0.10698188496 0.14409295561 
0.21689630253 0.3447395323 0.5654119065 0.92035849271 1.3453455104 1.5171289648 1.234595649 0.80485381301 0.48443731041 
0.28964558285 0.17417324625 0.1033607698 0.06009678866 0.042970438463 0.053212692524 0.075443082895 0.10075995675 0.12658621947 
0.15134423627 0.17312969747 0.18969182436 0.1989954424 0.19985119137 0.19252040251 0.17856677965 0.16042913562 0.14070943279 
0.12174529542 0.10538503056 0.093031399856 0.085406440475 0.082339013247 0.082816429975 0.085399092961 0.088721821229 0.09183451584 
0.094255255966 0.095790146358 0.096608506063 0.096985678967 0.097298934141 0.09791441475 0.099098198424 0.10094695362 0.10343741039 
0.10636086833 0.10938881218 0.11218086223 0.11433449078 0.11548447149 0.11539578779 0.11378256344 0.11066703216 0.10608279766 
0.10022646534 0.093360224561 0.085955998697 0.078466870859 0.071493160467 0.065627151408 0.061411111837 0.059209501454 0.058997990571 
0.060423896114 0.062848281773 0.065584210151 0.068162271358 0.070075759507 0.071158284791 0.0712771481 0.070496515193 0.069011749906 
0.066989738584 0.064626055813 0.061910991447 0.058742271508 0.054724701653 0.049407889097 0.042413398329 0.033550045285 0.022974343587 
0.011113294327 0 
Torsion 1 128 double
0 0 -0.079495196957 -0.10138877663 -0.11704027019 -0.12507992525 -0.12588374883 -0.12129646359 -0.11403778656 
-0.10689954282 -0.10231720352 -0.10196171729 -0.10726142967 -0.1190938327 -0.13784752008 -0.16346797394 -0.19409192936 -0.2252369033 
-0.24889555336 -0.25503082957 -0.23674892792 -0.19424503868 -0.13418498413 -0.064963970865 0.0071334682087 0.077848135691 0.14201353786 
0.19229257052 0.22073613902 0.22287856427 0.20222862936 0.16821516491 0.13075850806 0.096951759907 0.07070591198 0.054307353968 
0.049977578864 0.061432616548 0.095822680374 0.16732576193 0.3016485275 0.52761838402 0.78794629743 0.82246361762 0.5898752008 
0.3426289733 0.16853029882 0.05147188504 -0.026064996068 -0.072776582135 -0.10748532935 -0.15332746293 -0.21373473198 -0.27966269594 
-0.35807494655 -0.48332947253 -0.74540713797 -1.379230906 -2.0135268916 -1.1803720679 -0.60929652644 -0.38148475815 -0.27268143937 
-0.20829765638 -0.16294032984 -0.12639448405 -0.09375577029 -0.061876802306 -0.027825964623 0.011362037895 0.058800811296 0.11758833064 
0.1891154267 0.26895078556 0.34066289149 0.37831159239 0.36604818429 0.31615518843 0.25558886905 0.20381430238 0.16675090608 
0.14385625485 0.13249657338 0.12867426518 0.12913764529 0.12971558268 0.12772431968 0.12149569065 0.11008210284 0.095010879695 
0.07818944248 0.062080997318 0.048206767094 0.037752876735 0.03198098267 0.030779397421 0.034715611354 0.044242356703 0.05981840924 
0.082330008824 0.11278468666 0.15247344719 0.2018154051 0.25867458594 0.31648205923 0.36215241775 0.38148962276 0.36866029437 
0.33272570154 0.28909533941 0.25036249556 0.22143813955 0.20317434893 0.19593796831 0.19820169662 0.20715280209 0.21976496316 
0.23182343665 0.23802040107 0.23437629408 0.21888549414 0.19345940887 0.16230936799 0.12811201097 0.094621596846 0.065075224906 
0 0 
Abscissas 1 128 double
0 0.50256690031 1.0051338006 1.5077034002 2.0102731315 2.512838531 3.0154038211 3.5179716693 4.020539684 
4.523104853 5.0256697948 5.528239779 6.0308102896 6.5333739517 7.0359367443 7.5385035707 8.041071006 8.5436397375 
9.0462086966 9.548775374 10.051341591 10.553907106 11.05647246 11.559039966 12.06160803 12.564180569 13.066754401 
13.569328004 14.071901533 14.574455036 15.077001468 15.579573378 16.082155185 16.584726877 17.087294269 17.589860393 
18.092425932 18.594989573 19.09755226 19.600128783 20.102712851 20.60527572 21.107826037 21.61039278 22.112969988 
22.615550807 23.118134189 23.62069831 24.123249442 24.625815574 25.128399725 25.630965462 26.133523842 26.636086704 
27.138651466 27.641216309 28.143781191 28.646351848 29.148925551 29.651488261 30.154044663 30.656613817 31.159190898 
31.661760538 32.164325176 32.666887956 33.169449386 33.672014723 34.174583099 34.677149116 35.179713157 35.682285993 
36.184866775 36.687430251 37.189976878 37.69254747 38.195143233 38.697710796 39.200246436 39.702802845 40.205384619 
40.70795979 41.210526261 41.713101919 42.215690642 42.718263325 43.220811358 43.7233634 44.225922112 44.728493609 
45.231088183 45.733664626 46.236205536 46.738757901 47.241334717 47.743906105 48.246464849 48.749025705 49.251591944 
49.754159176 50.256729188 50.759300554 51.261876105 51.764450604 52.267021495 52.769591462 53.272157888 53.774724429 
54.27729147 54.779857099 55.282415792 55.784976787 56.287550795 56.790121915 57.29267397 57.7952277 58.297794626 
58.800362331 59.302937525 59.805513625 60.3081011 60.81068636 61.313237491 61.815788897 62.31835112 62.820914369 
63.323498702 63.826083035 
ParallelTransportNormals 3 128 double
0.26561159726 0 0.96408012084 0.30313221744 -0.0059971037017 0.95205710015 0.34065283763 -0.011994207403 0.94003407947 
0.36319737519 -0.015346924103 0.93129218232 0.3850115671 -0.018570680739 0.92271029727 0.40200815557 -0.020347483411 0.91521573713 
0.41888313229 -0.022087760331 0.90774862455 0.431145894 -0.022470191223 0.90190394872 0.44310834213 -0.022764209149 0.89616491407 
0.45450444482 -0.021764590881 0.89038546885 0.46585535606 -0.020661747115 0.88460279907 0.47726922732 -0.017702736829 0.87847653529 
0.48868967113 -0.014549956549 0.87231440284 0.49855440318 -0.0097101255118 0.86671745172 0.50822160092 -0.0046560835793 0.8611922637 
0.51194279592 -0.0019567645062 0.85900784497 0.51476648881 0.00038712776864 0.85732768894 0.50817429318 -0.007304631001 0.86111948103 
0.49992930406 -0.016757971652 0.86587177728 0.47952614897 -0.04439651382 0.8754934304 0.456668826 -0.075705801853 0.88609798007 
0.4186158667 -0.12957056113 0.89597401415 0.37707367745 -0.18861451949 0.9056827661 0.3261339221 -0.25824974118 0.90502454034 
0.27276111924 -0.33062706082 0.90168228459 0.22531841907 -0.39312617594 0.88824554818 0.17958831584 -0.45277249342 0.8718935542 
0.15036098121 -0.492162042 0.85636619272 0.12641347359 -0.52507072433 0.84110266073 0.11661709292 -0.53973044881 0.83365768182 
0.11181803332 -0.5479457465 0.82897374238 0.11176452885 -0.54652443602 0.82992923361 0.113554663 -0.54135932265 0.83307563231 
0.11416023736 -0.53844491143 0.83488893391 0.11426227317 -0.53648723985 0.83613555598 0.11609797349 -0.54266024396 0.83180593774 
0.11873633208 -0.55259761774 0.82489461158 0.12479957079 -0.56489652112 0.81547280765 0.13258442676 -0.57838251719 0.80478903785 
0.14019166849 -0.58887527146 0.7958618556 0.14770202125 -0.59773520535 0.78789289594 0.15320527333 -0.60361740624 0.78238661659 
0.15752026959 -0.60773671172 0.77833830807 0.15387059813 -0.60466713421 0.78136802368 0.1451468405 -0.59701770316 0.7889069675 
0.13688895951 -0.58972623738 0.79583764635 0.12896186644 -0.58268893885 0.80233643684 0.0049368120516 -0.39387229824 0.84466026999 
-0.19738445628 -0.082464062616 0.91114443442 -0.3105250067 0.30952762472 0.73613566836 -0.31654338119 0.79831461593 0.2710502042 
-0.27134773686 0.94515338031 0.01231976505 -0.20568750212 0.95535318199 -0.16395334767 -0.18053546659 0.95531873978 -0.23278550001 
-0.17255354106 0.95094633398 -0.25607691877 -0.16744073728 0.94695505254 -0.27387719383 -0.1637391369 0.94315123056 -0.28897660036 
-0.16322879445 0.94336050193 -0.28871929905 -0.16440213636 0.94568705203 -0.28035991089 -0.16553184036 0.95198589181 -0.25535613993 
-0.16663650015 0.96056446585 -0.2208000017 -0.16413960878 0.9706093349 -0.16103798197 -0.15940364078 0.98156579642 -0.08560551969 
-0.14850791443 0.98143307037 0.021563383032 -0.13347085673 0.97384485704 0.15006934282 -0.11840086714 0.94016620667 0.28716405304 
-0.10330696707 0.88754436842 0.43049469991 -0.094974510489 0.82678837463 0.54480879491 -0.091901652431 0.75970497566 0.63655146503 
-0.0916537114 0.70425765105 0.70175363189 -0.093771278927 0.65855405811 0.74473150436 -0.095707829106 0.62234108986 0.77625900002 
-0.097480804598 0.59470423872 0.79743946633 -0.098657363955 0.57136737227 0.81449043736 -0.099253235281 0.55221709552 0.82752081214 
-0.099201619951 0.53379485618 0.83958193319 -0.098469931811 0.51613729429 0.85062502075 -0.096779994645 0.49776845297 0.86168333659 
-0.094005330934 0.47859445174 0.87275889066 -0.090077982966 0.45908601619 0.88359899573 -0.084742666552 0.43916907939 0.89415150709 
-0.078910286198 0.42079180717 0.90357752199 -0.072423090191 0.40444283834 0.91151952758 -0.066703411842 0.39117719333 0.91785277401 
-0.062075182808 0.38229619229 0.92189828276 -0.059108276221 0.37666300393 0.92446242019 -0.058694386844 0.37602085248 0.92475007817 
-0.060157834456 0.37781387172 0.92390423966 -0.06474568845 0.38365968644 0.92117195047 -0.070939137105 0.39076210956 0.91769154593 
-0.080030523124 0.40013258487 0.91286086819 -0.090101616688 0.40960010318 0.90772025162 -0.10209267837 0.41925780015 0.9019722368 
-0.11426441637 0.42824332492 0.89633648076 -0.1268217854 0.43579418211 0.89094032707 -0.13900621092 0.44252257815 0.88586871128 
-0.15032208787 0.44733554344 0.88155291219 -0.16133020507 0.45160127907 0.87747810167 -0.17155355538 0.45447161547 0.87401779592 
-0.18206922414 0.45708239294 0.87055150239 -0.19340405566 0.45896580949 0.8670684293 -0.2057900064 0.4606852787 0.8633097323 
-0.22142790159 0.46189752894 0.85869831223 -0.23858839736 0.46288890296 0.85357336932 -0.2609777167 0.46312175717 0.84668491709 
-0.28478966257 0.46307043023 0.83910667487 -0.31406086703 0.46192857224 0.82888139788 -0.34418280398 0.46053518912 0.81791273242 
-0.37798170139 0.4580546864 0.80373105923 -0.41198668529 0.45543502455 0.78889612375 -0.44700430442 0.45213158458 0.77085129103 
-0.48175010098 0.44881198935 0.75236150382 -0.51495889076 0.44540104507 0.73135574424 -0.54754933797 0.44206970916 0.71024072038 
-0.57605872548 0.43926378829 0.68840455245 -0.60372563067 0.43658977167 0.66688180051 -0.62475461014 0.43495502976 0.64782845594 
-0.64490597148 0.43343728885 0.62942553059 -0.65663423071 0.43304248657 0.61726512387 -0.66749902042 0.43267694237 0.60599976975 
-0.6675310091 0.43267846025 0.60596344738 -0.66696480064 0.43258037791 0.60663354758 -0.65718330581 0.43094794427 0.61818615774 
-0.64701489231 0.42914974013 0.63017933307 -0.62160592381 0.42082191011 0.6595261751 -0.59737694038 0.41288082208 0.68751015837 
-0.59737694038 0.41288082208 0.68751015837 -0.59737694038 0.41288082208 0.68751015837 
FrenetTangent 3 128 double
-0.93210079095 0.11460500171 0.34358959399 -0.93210079095 0.11460500171 0.34358959399 -0.93095547722 0.10706878094 0.34908190383 
-0.92912390797 0.094587291736 0.35746609333 -0.92660694957 0.076828424347 0.36809910925 -0.92335422475 0.053408587673 0.38021638366 
-0.91922948529 0.023952163654 0.39299293534 -0.91398157156 -0.011836852352 0.40558300725 -0.90723254281 -0.054092438217 0.41713681376 
-0.89849664738 -0.10269670967 0.42679873532 -0.88723942354 -0.15719135514 0.43370160616 -0.87297953622 -0.21670900598 0.43697132179 
-0.85541762278 -0.27995353265 0.43575992266 -0.83456901268 -0.34525175688 0.42929685235 -0.81085191838 -0.41069139146 0.41695533027 
-0.78508761137 -0.4743276729 0.39830980556 -0.75840040096 -0.53440304446 0.37315173574 -0.73202277188 -0.58952286787 0.34147540133 
-0.70706162783 -0.6387399639 0.30343881254 -0.68428061803 -0.68154736408 0.25933227006 -0.66394457835 -0.71781207924 0.20957913966 
-0.64575802264 -0.74769191077 0.15476880424 -0.6288869262 -0.77158343541 0.095709123194 -0.61205679781 -0.79010579701 0.033456027699 
-0.59370954031 -0.80409310341 -0.030712583734 -0.57217709554 -0.81456377301 -0.095389889635 -0.54582947973 -0.82263683486 -0.15918171063 
-0.51318860075 -0.82937563558 -0.2208472666 -0.47299919656 -0.8355933226 -0.27938425025 -0.42427670162 -0.8416709352 -0.33403490431 
-0.36639599795 -0.84742542814 -0.38421883923 -0.29923516501 -0.85208501158 -0.42942921311 -0.2233599954 -0.85440388243 -0.46915276632 
-0.14019883282 -0.85292598521 -0.50285340909 -0.05209397469 -0.84637142943 -0.53003926387 0.037848693956 -0.83405339404 -0.55038387718 
0.12615606219 -0.81619241119 -0.56383915782 0.2095281289 -0.79400734634 -0.57065777587 0.28532563207 -0.76955706577 -0.57128907412 
0.35187289956 -0.74540466959 -0.56617783524 0.40850507277 -0.72424251645 -0.55551452085 0.45540394283 -0.70859116995 -0.53898590216 
0.49329407403 -0.7006323594 -0.51553394989 0.52310997944 -0.70215431328 -0.48304789593 0.54562035165 -0.71453355332 -0.43788152855 
0.56090163091 -0.73858467727 -0.37400806802 0.56739974698 -0.7737897701 -0.28161484125 0.55994496924 -0.81565847214 -0.14547469971 
0.52621340335 -0.84866642647 0.053523366109 0.4456665455 -0.83566106881 0.32101699067 0.30882807028 -0.7313380397 0.60808707822 
0.15102348825 -0.54766789843 0.82295308434 0.022931095275 -0.35531663975 0.93446468654 -0.05994342737 -0.19930948824 0.97810148421 
-0.10611696732 -0.085027141399 0.99071165052 -0.126948764 -0.0047763218854 0.99189777602 -0.13072529117 0.049092839714 0.99020239918 
-0.12296644697 0.081680900414 0.9890437217 -0.1075104486 0.095961435572 0.989561977 -0.087263394988 0.09352403887 0.99178543751 
-0.064617035999 0.075202929298 0.99507243861 -0.041642532974 0.041569143285 0.99826745203 -0.020140864198 -0.0066583652563 0.99977498056 
-0.0016126316163 -0.068224106507 0.99766871792 0.012828967434 -0.14103556605 0.98992140431 0.022573796992 -0.22200075242 0.97478515049 
0.02763050865 -0.30715046895 0.95125976705 0.028663105594 -0.39210143503 0.91947533465 0.026905554115 -0.47276276569 0.8807788931 
0.023963041256 -0.54600592544 0.83743853628 0.021552743378 -0.61002246256 0.79209095085 0.0212672091 -0.66429038844 0.74717199201 
0.024423398667 -0.70924853034 0.7045353219 0.031997793617 -0.74587413207 0.66531790921 0.044617559445 -0.77532297684 0.62998694826 
0.062576235063 -0.7986841496 0.59848796477 0.085861148887 -0.81684117386 0.57043699022 0.11418228419 -0.83043679159 0.54528629283 
0.14701483963 -0.8398949548 0.52245870826 0.18364643404 -0.845467997 0.50145573414 0.22324138757 -0.84729411267 0.48192942379 
0.26492811321 -0.84546073696 0.46369088528 0.30787079296 -0.84004246883 0.44670373337 0.35134677168 -0.83111516672 0.43104875094 
0.39479496885 -0.81875737524 0.41686123957 0.43782458943 -0.80303460654 0.40428337783 0.48020670649 -0.78398942861 0.39339813785 
0.52183677056 -0.76162752054 0.38420034466 0.56267546627 -0.73592052358 0.37658638137 0.60269483124 -0.70682785822 0.37034216508 
0.64182586615 -0.67432186762 0.36517061272 0.67991163683 -0.63843517646 0.3607224578 0.71669488561 -0.59929469512 0.35664311201 
0.75182432655 -0.55715661047 0.35261408569 0.78487489862 -0.51243593432 0.34839748383 0.81539776465 -0.46569116896 0.34388692991 
0.84296297576 -0.41762469377 0.33912097642 0.86721323337 -0.36903571284 0.33429605221 0.8879082471 -0.32074964128 0.32975538259 
0.90493395308 -0.27357877376 0.32595888562 0.91830063158 -0.22827274789 0.32344319843 0.92812829705 -0.18546669184 0.32276922164 
0.93461084237 -0.14565789532 0.32447858305 0.93797769553 -0.10920918712 0.32904588757 0.9384609877 -0.076352266183 0.33684017873 
0.93626840212 -0.047216960095 0.34809774184 0.9315710078 -0.021850648696 0.36290219974 0.92450136617 -0.00024809431788 0.38117864892 
0.91516663649 0.01763439205 0.40268977597 0.90366699005 0.031855960835 0.4270493752 0.89012621755 0.042472275767 0.4537305617 
0.87470743468 0.049528322933 0.48211393772 0.8576413628 0.053050994235 0.5115045306 0.83924120264 0.053068509357 0.54116350312 
0.81989556275 0.049600583437 0.57036045471 0.80006234351 0.042678084478 0.59839688135 0.78023046312 0.032378472161 0.62465355114 
0.76089054366 0.018860043732 0.6486061049 0.74249975092 0.0024102232185 0.66984200429 0.72544904718 -0.016499972499 0.68807807032 
0.71003867493 -0.037181457262 0.70318036046 0.69647246759 -0.058713213617 0.71517750274 0.68488164241 -0.079957275781 0.7242540783 
0.67534738512 -0.099641166029 0.73073767349 0.66791975359 -0.11645965565 0.73506486202 0.66264210673 -0.12922537778 0.7377033551 
0.65955467521 -0.13701047798 0.73906411043 0.65955467521 -0.13701047798 0.73906411043 
FrenetNormal 3 128 double
0.12406464147 -0.79021248507 0.60014347716 0.12406464147 -0.79021248507 0.60014347716 0.12279698543 -0.80854632512 0.57547696783 
0.12181210438 -0.83447167634 0.53741867535 0.12209161669 -0.86440172121 0.48775332034 0.1249458732 -0.89457779116 0.42909102103 
0.13176954982 -0.92187211628 0.36440168353 0.14383972423 -0.94411066746 0.29658924679 0.16194926201 -0.96016599583 0.22771406848 
0.18621651669 -0.9696043934 0.15871587574 0.21597097779 -0.97229661376 0.089419414106 0.24974278171 -0.96812956521 0.018806593475 
0.28539471933 -0.95685980229 -0.054490117848 0.3200460502 -0.93812172024 -0.13228062504 0.35042656183 -0.91130836506 -0.21614413833 
0.37290471204 -0.87543480799 -0.30749954908 0.38386989843 -0.82889717145 -0.40690709042 0.38050221771 -0.769543834 -0.51285509637 
0.36188874414 -0.69548993924 -0.62074977349 0.33088718142 -0.60710949542 -0.72244842981 0.29481163104 -0.50883535859 -0.80880942134 
0.26386547 -0.40873898232 -0.87367468664 0.24790670162 -0.31567083414 -0.91591167247 0.25364899661 -0.23620858099 -0.93801262933 
0.28421386237 -0.17383873549 -0.94286933055 0.33975442983 -0.12956572484 -0.93154691259 0.41774484128 -0.10249209767 -0.90276498464 
0.51199516178 -0.089311811072 -0.85433269557 0.61296509804 -0.084308969232 -0.7855989984 0.70958466908 -0.079851603763 -0.70008093731 
0.79305984715 -0.06845689947 -0.60528483522 0.85939194977 -0.045115269322 -0.50932316769 0.90850553102 -0.0080926191681 -0.41779445858 
0.94202857055 0.041456851561 -0.33296171211 0.96178207906 0.10034898562 -0.25476521249 0.96950707112 0.16410087383 -0.18200808292 
0.96724549959 0.22741364264 -0.11277933618 0.95770195062 0.28437287617 -0.044034544141 0.94416200426 0.32815755638 0.029508098804 
0.92950793337 0.34962469634 0.117377909 0.91264183935 0.3337226259 0.23603830629 0.87726277148 0.25399280609 0.40730539431 
0.77305608581 0.081389871825 0.62909456916 0.55895284887 -0.14520974638 0.81638584156 0.31779340867 -0.30706921591 0.89705955546 
0.13533653913 -0.36388531593 0.92155927537 0.0050427470277 -0.33872534212 0.94087178367 -0.10567508377 -0.24445656999 0.96388472447 
-0.22196667631 -0.076324199513 0.9720624523 -0.3491682528 0.16792682299 0.9218905105 -0.45738650064 0.44636362707 0.76912749363 
-0.50320092568 0.67397862229 0.54087119085 -0.4826411046 0.8146365339 0.32159739082 -0.41642000828 0.89552080082 0.15696137106 
-0.31397069322 0.94823109939 0.047751292668 -0.16493271544 0.98616912344 -0.016360297999 0.06810070538 0.99685882863 -0.040432285546 
0.47098669399 0.88202463567 -0.014285522256 0.95192044895 0.29712137435 0.074607960489 0.89633025861 -0.42708107441 0.11913783358 
0.66265084922 -0.74233852821 0.099133049819 0.48143502037 -0.87465851629 0.056504876309 0.34517464118 -0.93853821056 0.00070314358085 
0.23850154174 -0.96890553635 -0.065871664813 0.15292888202 -0.97807899282 -0.14133025454 0.084350334608 -0.97113404187 -0.22312259806 
0.030853594884 -0.9509076462 -0.30793295388 -0.0080099464936 -0.91991383917 -0.39203873439 -0.03152338334 -0.88106092424 -0.47195118825 
-0.037638112452 -0.83757792748 -0.54501980504 -0.02302490598 -0.79236771429 -0.60960910349 0.01718804619 -0.74698763316 -0.66461571376 
0.088937769568 -0.70040957511 -0.70817829692 0.19692967138 -0.6479052838 -0.73582433213 0.33849998895 -0.5815777925 -0.73971956088 
0.49674196094 -0.49518734242 -0.71276708689 0.64385023633 -0.39144337817 -0.6574412178 0.75785415033 -0.2820842674 -0.58829036446 
0.83459974058 -0.17815777392 -0.52125145622 0.8814378121 -0.084181033193 -0.46473749262 0.90792768516 0.00082363811564 -0.41912604325 
0.92082951059 0.079117613476 -0.38185522868 0.92460861402 0.15347377587 -0.34863263044 0.92146126952 0.22547378247 -0.31633953624 
0.91240509775 0.29607227627 -0.28259183431 0.89764984828 0.36526906125 -0.24658317621 0.87713586924 0.43218216401 -0.20940688622 
0.85100241057 0.49594936561 -0.17271109968 0.81975590471 0.55553494358 -0.13921631784 0.78428527802 0.61028683409 -0.11156425419 
0.74550448429 0.66024571613 -0.09109697166 0.70425074426 0.70558541271 -0.078613704754 0.66090905905 0.7469012824 -0.073059496396 
0.61581887729 0.7844494882 -0.073526259491 0.56898759723 0.81866736915 -0.077697187103 0.5204712826 0.8498069453 -0.083293455356 
0.47039182185 0.87806531382 -0.087936560128 0.4187955291 0.90373111117 -0.088771524186 0.36568348457 0.92703736245 -0.082929594982 
0.31081070976 0.94809777645 -0.067136495196 0.25355392302 0.96658637132 -0.037698738608 0.19280339991 0.98119243485 0.0093944017127 
0.12677132239 0.98880288955 0.078726599248 0.053754572112 0.98342519927 0.17316270794 -0.027219191954 0.95587648534 0.29250514587 
-0.11413552193 0.89627515637 0.4285602953 -0.20134789732 0.80012042802 0.56503656953 -0.28131479725 0.67434244595 0.6827329276 
-0.34880086382 0.53533810717 0.76925357874 -0.40337520394 0.39815346246 0.82387029633 -0.4473181685 0.27166937002 0.8521163122 
-0.48354019325 0.15650615421 0.86121699078 -0.51387989929 0.050770565974 0.85635845225 -0.53908279877 -0.049042669326 0.84082373459 
-0.55876578058 -0.14767914051 0.81607087554 -0.57181110171 -0.24747992001 0.78216734345 -0.57653988688 -0.35006562079 0.7382789581 
-0.5714220632 -0.45413261195 0.68354984928 -0.55561451235 -0.55633811597 0.61788381949 -0.53015964498 -0.65092809204 0.54334461424 
-0.49787098704 -0.73269544968 0.46398476083 -0.46319435434 -0.7979901757 0.3855679831 -0.43016393471 -0.84663770725 0.31331067958 
-0.40180688304 -0.88057421586 0.25127729526 -0.3804048324 -0.90233401134 0.20269557338 -0.36546279347 -0.91555873804 0.1678962292 
-0.35755194511 -0.92206738241 0.14814975141 -0.35755194511 -0.92206738241 0.14814975141 
FrenetBinormal 3 128 double
0.34028823114 0.60202152953 0.7223392539 0.34028823114 0.60202152953 0.7223392539 0.34386450791 0.57860964067 0.73957290643 
0.34912830716 0.54287223693 0.76380570796 0.35565882268 0.49689743165 0.79158053556 0.36305027807 0.44370947514 0.81933900021 
0.37101743775 0.38675327416 0.84425586513 0.37940456056 0.32941605381 0.86460236116 0.388202975 0.27414461253 0.87985406837 
0.39752633065 0.22208265606 0.89031012031 0.40763064418 0.17300338938 0.89660865777 0.4189692976 0.12554820468 0.89927880881 
0.43221585443 0.077751773746 0.89841199728 0.44840281982 0.026997451324 0.89342377895 0.46874341726 -0.029148666391 0.88285330833 
0.49454981368 -0.092882483141 0.86417204659 0.52675680621 -0.16535678163 0.83377718959 0.56512009676 -0.24548946171 0.78763836906 
0.60753632921 -0.32909725452 0.72290705195 0.64982590665 -0.40854773416 0.64094854705 0.68721444913 -0.47521826222 0.54945782746 
0.71649953938 -0.5233442948 0.46123655445 0.73691485353 -0.55227794332 0.38980196507 0.74903181693 -0.56563091836 0.34498261032 
0.75281568938 -0.56851945886 0.33174412236 0.74644510766 -0.56541894437 0.35088619038 0.72633286215 -0.55925308032 0.39959550236 