# vtk DataFile Version 4.2
vtk output
ASCII
DATASET POLYDATA
POINTS 128 float
0 0 0 -0.303265 0.02714 0.144619 -0.909985 0.0782756 0.39826 
-1.44272 0.114905 0.539563 -1.9059 0.132791 0.589453 -2.39695 0.135689 0.625826 
-2.9088 0.116513 0.651845 -3.41261 0.0661975 0.656022 -3.906 -0.0202371 0.650219 
-4.39267 -0.146302 0.651215 -4.86772 -0.314216 0.666054 -5.32412 -0.524977 0.698595 
-5.75774 -0.775286 0.751582 -6.16572 -1.06034 0.826685 -6.54742 -1.37471 0.92169 
-6.90303 -1.71307 1.03286 -7.23367 -2.07217 1.15522 -7.5406 -2.44979 1.2831 
-7.82426 -2.84582 1.40921 -8.08393 -3.26144 1.52434 -8.31356 -3.70118 1.61088 
-8.50437 -4.16861 1.64793 -8.64324 -4.65247 1.61464 -8.71782 -5.13551 1.49401 
-8.7337 -5.60141 1.29633 -8.70436 -6.03656 1.04321 -8.64456 -6.44429 0.754153 
-8.56887 -6.83513 0.446657 -8.48545 -7.21723 0.130416 -8.39969 -7.59762 -0.18823 
-8.31814 -7.98303 -0.500759 -8.24737 -8.37992 -0.798406 -8.18908 -8.79354 -1.07953 
-8.14578 -9.22902 -1.34081 -8.14998 -9.69565 -1.53129 -8.24559 -10.1972 -1.57932 
-8.43214 -10.6609 -1.4582 -8.6828 -10.9807 -1.17257 -8.96267 -11.1577 -0.778423 
-9.23526 -11.2493 -0.354426 -9.48992 -11.2873 0.074786 -9.72998 -11.2878 0.514745 
-9.95262 -11.2629 0.966149 -10.1513 -11.2219 1.42697 -10.3189 -11.1723 1.89864 
-10.4469 -11.1215 2.38438 -10.5102 -11.0867 2.88329 -10.4748 -11.091 3.38969 
-10.3284 -11.1531 3.87219 -10.0754 -11.2867 4.2848 -9.74582 -11.4838 4.61674 
-9.38569 -11.7223 4.88209 -9.01897 -11.9893 5.09875 -8.65353 -12.279 5.28646 
-8.29519 -12.5882 5.45742 -7.94835 -12.9155 5.61805 -7.61667 -13.2604 5.77349 
-7.30321 -13.6223 5.92785 -7.0111 -14.0011 6.08403 -6.74352 -14.3961 6.24396 
-6.5029 -14.8062 6.40879 -6.29092 -15.2296 6.57904 -6.10753 -15.664 6.75475 
-5.95107 -16.1067 6.93558 -5.81779 -16.5548 7.12132 -5.70195 -17.0057 7.31192 
-5.59634 -17.4567 7.50783 -5.4923 -17.9054 7.70997 -5.37974 -18.3485 7.91977 
-5.24723 -18.7817 8.1391 -5.08325 -19.1985 8.36911 -4.87647 -19.5895 8.61005 
-4.6205 -19.9447 8.86003 -4.31461 -20.2535 9.11483 -3.96288 -20.5094 9.3699 
-3.57465 -20.7105 9.62055 -3.15918 -20.8586 9.86379 -2.72524 -20.9592 10.0988 
-2.27985 -21.0181 10.3258 -1.82779 -21.0406 10.5459 -1.3728 -21.0315 10.7606 
-0.917393 -20.9942 10.9712 -0.463632 -20.9316 11.1793 -0.0130517 -20.8463 11.3862 
0.433056 -20.7405 11.5932 0.873701 -20.6163 11.8017 1.30812 -20.4762 12.0131 
1.73586 -20.3226 12.2286 2.1566 -20.1582 12.45 2.57013 -19.9858 12.6786 
2.97631 -19.8079 12.9161 3.37502 -19.6272 13.1638 3.7662 -19.4456 13.4227 
4.14988 -19.2651 13.6933 4.52643 -19.0871 13.9753 4.89683 -18.913 14.2677 
5.26242 -18.7445 14.5693 5.62512 -18.5833 14.8783 5.9869 -18.4313 15.193 
6.34969 -18.2906 15.5117 6.71519 -18.1634 15.833 7.08455 -18.052 16.1559 
7.45847 -17.959 16.4793 7.83675 -17.8868 16.803 8.21866 -17.838 17.1268 
8.6025 -17.8154 17.4515 8.98546 -17.8225 17.7781 9.3625 -17.8631 18.1085 
9.72696 -17.9426 18.4457 10.069 -18.0704 18.7949 10.3688 -18.2563 19.1598 
10.5822 -18.5106 19.5384 10.6715 -18.8318 19.9215 10.6296 -19.1851 20.2834 
10.466 -19.5374 20.6043 10.221 -19.8763 20.8904 9.93374 -20.196 21.153 
9.62185 -20.5004 21.4032 9.29735 -20.7943 21.6509 8.96671 -21.0802 21.8996 
8.63757 -21.3601 22.1559 8.32475 -21.6368 22.4386 8.04016 -21.9107 22.7587 
7.78073 -22.174 23.0914 7.55738 -22.4223 23.4354 7.4455 -22.6701 23.9084 
7.48272 -22.9052 24.5209 7.53321 -23.0136 24.8412 
LINES 1 129
128 0 1 2 3 4 5 6 7 8 9 10 11 12 13 14 15 16 17 18 19 20 21 22 23 24 25 26 27 28 29 30 31 32 33 34 35 36 37 38 39 40 41 42 43 44 45 46 47 48 49 50 51 52 53 54 55 56 57 58 59 60 61 62 63 64 65 66 67 68 69 70 71 72 73 74 75 76 77 78 79 80 81 82 83 84 85 86 87 88 89 90 91 92 93 94 95 96 97 98 99 100 101 102 103 104 105 106 107 108 109 110 111 112 113 114 115 116 117 118 119 120 121 122 123 124 125 126 127 

CELL_DATA 1
FIELD FieldData 2
Length 1 1 double
57.802207353 
Tortuosity 1 1 double
0.6662054636 
POINT_DATA 128
SCALARS MaximumInscribedSphereRadius float
LOOKUP_TABLE default
0.62 0.6965 0.773 0.840405 0.907117 0.918697 0.929401 0.959791 0.991349 
1.06543 1.14259 1.26534 1.39232 1.5403 1.69063 1.68781 1.66458 1.53398 
1.38669 1.31207 1.25041 1.24 1.24 1.24 1.24 1.32915 1.43994 
1.58995 1.75053 1.90731 2.06296 2.18658 2.29965 2.25109 2.14591 2.07969 
2.02942 2.07119 2.14817 2.16653 2.16169 2.1114 2.04179 1.91109 1.7521 
1.73439 1.78695 1.89234 2.02632 2.02873 1.95732 1.97065 2.03388 2.14855 
2.29569 2.41984 2.52839 2.61878 2.69594 2.68106 2.59434 2.43512 2.21532 
2.04571 1.92103 1.86438 1.87297 1.92642 2.02595 2.16459 2.34626 2.36555 
2.19368 1.96476 1.66435 1.56399 1.73067 1.90897 2.10385 2.28323 2.43889 
2.54888 2.58385 2.54025 2.35775 2.18318 2.02372 1.91747 1.92076 1.95145 
2.04321 2.17416 2.3999 2.60949 2.77659 2.92446 3.01707 3.05907 2.94157 
2.79652 2.55586 2.33628 2.1977 2.07264 2.00553 1.94243 1.89858 1.85737 
1.8306 1.79805 1.72984 1.6849 1.80858 1.95924 2.31491 2.63549 2.64617 
2.64946 2.5733 2.49719 2.42174 2.34658 2.27644 2.20738 2.18805 2.17 
2.17 2.17 
TEXTURE_COORDINATES TCoords 2 float
0 0 0.00787402 0 0.015748 0 0.023622 0 0.0314961 
0 0.0393701 0 0.0472441 0 0.0551181 0 0.0629921 0 
0.0708661 0 0.0787402 0 0.0866142 0 0.0944882 0 0.102362 
0 0.110236 0 0.11811 0 0.125984 0 0.133858 0 
0.141732 0 0.149606 0 0.15748 0 0.165354 0 0.173228 
0 0.181102 0 0.188976 0 0.19685 0 0.204724 0 
0.212598 0 0.220472 0 0.228346 0 0.23622 0 0.244094 
0 0.251969 0 0.259843 0 0.267717 0 0.275591 0 
0.283465 0 0.291339 0 0.299213 0 0.307087 0 0.314961 
0 0.322835 0 0.330709 0 0.338583 0 0.346457 0 
0.354331 0 0.362205 0 0.370079 0 0.377953 0 0.385827 
0 0.393701 0 0.401575 0 0.409449 0 0.417323 0 
0.425197 0 0.433071 0 0.440945 0 0.448819 0 0.456693 
0 0.464567 0 0.472441 0 0.480315 0 0.488189 0 
0.496063 0 0.503937 0 0.511811 0 0.519685 0 0.527559 
0 0.535433 0 0.543307 0 0.551181 0 0.559055 0 
0.566929 0 0.574803 0 0.582677 0 0.590551 0 0.598425 
0 0.606299 0 0.614173 0 0.622047 0 0.629921 0 
0.637795 0 0.645669 0 0.653543 0 0.661417 0 0.669291 
0 0.677165 0 0.685039 0 0.692913 0 0.700787 0 
0.708661 0 0.716535 0 0.724409 0 0.732283 0 0.740157 
0 0.748031 0 0.755906 0 0.76378 0 0.771654 0 
0.779528 0 0.787402 0 0.795276 0 0.80315 0 0.811024 
0 0.818898 0 0.826772 0 0.834646 0 0.84252 0 
0.850394 0 0.858268 0 0.866142 0 0.874016 0 0.88189 
0 0.889764 0 0.897638 0 0.905512 0 0.913386 0 
0.92126 0 0.929134 0 0.937008 0 0.944882 0 0.952756 
0 0.96063 0 0.968504 0 0.976378 0 0.984252 0 
0.992126 0 1 0 
FIELD FieldData 7
Curvature 1 128 double
0 0.023737187884 0.043839451002 0.062022991103 0.078083189375 0.092261686908 0.10504972789 0.11688158037 0.12786502023 
0.13771286549 0.1459099635 0.15201077147 0.15597253504 0.15839233014 0.1605022001 0.16401130724 0.17057034347 0.18109709253 
0.19507792683 0.21025296853 0.22282099007 0.22833344396 0.22306059342 0.20546288208 0.17661451664 0.13934918316 0.096731920337 
0.051096676083 0.014615384618 0.059160724748 0.12376871536 0.2041888498 0.30597194951 0.43046233015 0.56396096724 0.66769507961 
0.69373315576 0.63059534247 0.51669250622 0.3996697817 0.30569776386 0.24269649671 0.21134509585 0.20906033339 0.22861660229 
0.25992681745 0.29226121217 0.31532180047 0.32109293418 0.3069680545 0.27671433078 0.23783284589 0.19779674788 0.16189220276 
0.13293270878 0.11189757677 0.098277825074 0.090277813525 0.08525869016 0.080666267739 0.074557866293 0.065840930665 0.05426873514 
0.040593015454 0.028219575753 0.027756124328 0.043831827254 0.06726026265 0.093404570885 0.12017495558 0.14582504223 0.16848923085 
0.18630752385 0.19772206108 0.20196349622 0.19924182057 0.19074995181 0.17805390013 0.1629819524 0.14695266867 0.13106897173 
0.11600717821 0.10214241462 0.089635034207 0.078534952144 0.068809112542 0.060513326544 0.053544432674 0.047917295586 0.043512976763 
0.040220964856 0.03789084435 0.03649021386 0.036089901586 0.036901035368 0.039207617315 0.043174494363 0.048824829236 0.056068136033 
0.064792071974 0.075059113671 0.087078636176 0.10140421103 0.11879790163 0.14035096587 0.16713703318 0.2000430613 0.2391412867 
0.28242337983 0.32475375141 0.35748874661 0.37046787568 0.35743042771 0.31996452423 0.26651973524 0.20728017818 0.14990583663 
0.099020449059 0.058983402273 0.041021312685 0.052152640371 0.0702611677 0.082188795598 0.083787714422 0.074026111007 0.054142800552 
0.027061364025 0 
Torsion 1 128 double
0 0 0.1113320829 0.14940513822 0.18303190386 0.20654648755 0.21490392552 0.20543016942 0.17890911903 
0.13865568616 0.088249942076 0.030178407984 -0.03397921428 -0.10200713081 -0.16868910848 -0.22417082855 -0.25660295178 -0.25953021002 
-0.23712205125 -0.20071561455 -0.16102477425 -0.12413501105 -0.091742394051 -0.062344843272 -0.031797022584 0.010348428245 0.10356525463 
0.546018416 7.9220695372 0.5291592516 0.12310760646 0.037726385714 0.0014366021529 -0.022983022068 -0.045737169731 -0.072005715303 
-0.10728857766 -0.15950399755 -0.23813762906 -0.35291003556 -0.50964901492 -0.68525589414 -0.78821749895 -0.72920679948 -0.56980663278 
-0.41912083396 -0.31522009544 -0.25287396894 -0.22094966129 -0.21150798232 -0.22063277125 -0.2475209368 -0.29231249653 -0.35342820219 
-0.42156034216 -0.4740300701 -0.48276214391 -0.44102531937 -0.37341457768 -0.31111769395 -0.27493446166 -0.28101684943 -0.36467078326 
-0.64440036546 -1.4295483163 -1.6362639101 -0.72350525638 -0.32982578215 -0.1763426917 -0.10399148905 -0.064002355404 -0.038589888599 
-0.020516186104 -0.0063091718455 0.0062334410202 0.018325395486 0.030771502701 0.044274846281 0.059258841569 0.0761122037 0.095472470056 
0.11763369493 0.14289133911 0.17193774415 0.2054207511 0.24298736901 0.283193736 0.32479619388 0.36331086197 0.39670962293 
0.42341807896 0.44555514704 0.4631899041 0.47212779368 0.46208257825 0.42152968137 0.35167928442 0.26510521223 0.1758902561 
0.093164831384 0.020696251689 -0.03994059528 -0.088306765148 -0.12324234206 -0.14473648995 -0.15440943669 -0.15439691884 -0.14783371324 
-0.13780587598 -0.12688822887 -0.11744172051 -0.1111574008 -0.1096677157 -0.11575724561 -0.13369404529 -0.1739710125 -0.26514477003 
-0.49502599531 -1.1553087338 -1.9681765821 -0.97407662194 -0.40294662468 -0.19892432588 -0.1112291339 -0.066257077893 -0.038872702282 
0 0 
Abscissas 1 128 double
0 0.50295974881 1.0059194976 1.508879619 2.0118397688 2.5147977131 3.0177556223 3.5207177515 4.0236801308 
4.526641201 5.0296021768 5.532561771 6.0355212372 6.5384789213 7.0414364051 7.5443999984 8.0473644062 8.5503213824 
9.0532772034 9.5562373299 10.059198224 10.562159047 11.065119854 11.568080034 12.071040073 12.573999214 13.076958138 
13.579918714 14.082879735 14.585839126 15.088798034 15.591758111 16.094718572 16.597679501 17.100640592 17.603609301 
18.106581127 18.609542467 19.112499795 19.615457877 20.118416258 20.621377891 21.124340905 21.627299379 22.13025575 
22.633217171 23.136181103 23.639146011 24.142111446 24.645079647 25.148049399 25.651006139 26.153955215 26.656916746 
27.159886142 27.662849785 28.165809524 28.668765469 29.171718653 29.674681856 30.177652878 30.680605769 31.18354351 
31.686484488 32.189428364 32.692392683 33.195376598 33.698346792 34.201302897 34.704259399 35.207216337 35.710175108 
36.213136036 36.716091232 37.219039245 37.72199298 38.224954351 38.727913995 39.230871174 39.733828591 40.236786373 
40.739743763 41.242700508 41.745663092 42.248635999 42.75159868 43.254541875 43.757493559 44.260462718 44.763426152 
45.266376832 45.769332752 46.272301351 46.77527134 47.278244987 47.781208229 48.284141575 48.787089042 49.290081017 
49.793064442 50.296018205 50.798968607 51.301906095 51.804850322 52.307823405 52.810794825 53.313758261 53.816719916 
54.319671885 54.822625108 55.325586064 55.828545621 56.331495054 56.834445898 57.337407456 57.840370077 58.343342079 
58.846314799 59.349295221 59.852273588 60.355223486 60.858173365 61.361122898 61.864072426 62.367021674 62.869972868 
63.372951497 63.875930126 
ParallelTransportNormals 3 128 double
0.39802132978 0 0.91737616115 0.29355212673 0.007207112584 0.94918424464 0.18908292369 0.014414225168 0.98099232813 
0.12390399287 0.015933279208 0.9902970326 0.061714806708 0.017019507471 0.9978893703 0.029312407986 0.014533880436 0.99893052943 
-0.0026169234885 0.011991525975 0.99986764419 0.0041145019792 0.013772590048 0.99985356973 0.013138165841 0.015809994316 0.99978309823 
0.043414944 0.028304923105 0.99805264004 0.075224111589 0.041553859039 0.9962024937 0.1107134384 0.063771892877 0.99086552028 
0.14654382785 0.086821147331 0.98520540149 0.17217555375 0.10882290509 0.97845907881 0.19666143172 0.13070697371 0.97159071813 
0.2065480313 0.14149405348 0.9680692287 0.21448838497 0.15080178142 0.96499391437 0.20432340986 0.13470590874 0.96928251383 
0.19134406266 0.11466118841 0.97471579249 0.15804481054 0.03947608861 0.98228211332 0.12112050765 -0.045545999906 0.99022896674 
0.091073611472 -0.1789593765 0.96846915742 0.062424080922 -0.32220499446 0.9406734873 0.058645506293 -0.43000344252 0.89409413139 
0.060447606725 -0.52984806936 0.84329999389 0.065492722617 -0.57791707601 0.81227350517 0.071324605291 -0.61342513788 0.7860427165 
0.072601953645 -0.62114689058 0.78032390837 0.072652787495 -0.62138592194 0.78012887937 0.068693955896 -0.59952324503 0.7966223808 
0.063542441461 -0.57108637173 0.81807991827 0.057708797409 -0.50377478425 0.8572331611 0.051650722242 -0.42367281909 0.90220856262 
0.083709132969 -0.20969314992 0.93859035641 0.12911950778 0.05118303276 0.97196186373 0.2500352613 0.29387801347 0.87057102543 
0.40184305817 0.52913439194 0.71404392673 0.49952433931 0.62161175976 0.5872664733 0.57649584902 0.65945932853 0.4718717654 
0.62411163818 0.67180785509 0.39241893795 0.66010690907 0.6740625369 0.32719377282 0.68759803291 0.67190613911 0.26908188323 
0.71147652504 0.66787587838 0.21399177168 0.73065532319 0.66261763741 0.15051674884 0.74765804994 0.65679081204 0.083159310302 
0.74960643239 0.65603810539 -0.00080072662803 0.7440670499 0.65780917576 -0.093018602744 0.72121194481 0.66976005096 -0.16414563467 
0.68899005095 0.6872176026 -0.22386375879 0.67298771247 0.69641263132 -0.24901378207 0.66608656609 0.70097135488 -0.25476679238 
0.67350390591 0.69480640518 -0.25142635099 0.68935507794 0.68232502933 -0.24272971169 0.71153843256 0.66240036738 -0.23171717615 
0.73772089042 0.63777488245 -0.21924203145 0.76699777988 0.60629783841 -0.2048683016 0.79837507795 0.57017015878 -0.18920586833 
0.83011055781 0.52773355477 -0.17150614192 0.86210683869 0.4807032666 -0.15232301191 0.89099196205 0.43072305552 -0.13206456921 
0.91744866211 0.3784402733 -0.11096678796 0.93848467904 0.32979618962 -0.091183764805 0.95499090481 0.28419278258 -0.072499418587 
0.9662953301 0.24958160179 -0.058121609601 0.97294464758 0.22480739923 -0.047597734478 0.97525836867 0.21648436088 -0.044176176937 
0.97341584669 0.22393194118 -0.04756313098 0.96481333126 0.25110992886 -0.061307281035 0.94926956686 0.29854735486 -0.085686334349 
0.9200588606 0.36139417237 -0.12225328979 0.87580933894 0.44119716021 -0.17223155643 0.81595126977 0.51983457692 -0.2288718198 
0.73771789197 0.59709981411 -0.29335498119 0.65464055998 0.66049143649 -0.35477261713 0.56549372757 0.7064993455 -0.41234913334 
0.4825568663 0.74024697592 -0.46266191505 0.40790926358 0.75762921324 -0.50327884284 0.34141975306 0.76894763227 -0.53822081138 
0.28657044348 0.77161402067 -0.5650655846 0.23772412733 0.77188988894 -0.58859079721 0.19805950284 0.76850941158 -0.60703867926 
0.1627161702 0.76434187897 -0.62344698303 0.1344726097 0.75888123466 -0.63650431179 0.10986666703 0.75352067512 -0.64797931901 
0.091692080782 0.74833706679 -0.65665676085 0.077074303059 0.74396315328 -0.66372370531 0.06923369226 0.74113203775 -0.66772199725 
0.064732073739 0.73955028238 -0.66997799033 0.067104469511 0.74054059635 -0.66864709662 0.07198601966 0.74269271303 -0.66568202925 
0.082458722777 0.74743367671 -0.6590755299 0.094146970394 0.75279266097 -0.65134698793 0.10877524205 0.75964644483 -0.64090457388 
0.12360909099 0.76657852314 -0.62997527053 0.13898396607 0.77371665222 -0.61776460067 0.15438138726 0.78074435822 -0.60530723982 
0.16984358342 0.78745481886 -0.59214113601 0.18563324447 0.79405892824 -0.57860194015 0.20245502613 0.80032783427 -0.5638868136 
0.2200855497 0.80648397719 -0.54848722438 0.24052170392 0.81224893023 -0.53071314534 0.26230387342 0.81775673101 -0.51185234687 
0.28925661952 0.82227670828 -0.48881702955 0.31833671017 0.82614957102 -0.46396694987 0.35652507805 0.82725179719 -0.43134692112 
0.39813957509 0.8266017684 -0.3952627039 0.45620730217 0.81753692135 -0.34254248507 0.51946065319 0.80286603223 -0.28180917975 
0.61092105231 0.75770124295 -0.17748892723 0.70061975797 0.6993110855 -0.061007417078 0.7794538249 0.55935801725 0.13047446796 
0.84426556918 0.41691930804 0.31825083865 0.80751925893 0.25647809907 0.47918965628 0.76899891272 0.10658589064 0.62834817154 
0.71700401383 0.036817797791 0.68803031358 0.6685717881 -0.027523988657 0.74304017572 0.65159958987 -0.043949016913 0.7567916772 
0.63703922529 -0.058127759496 0.76860351565 0.64837718774 -0.048185833237 0.75958720644 0.66192739642 -0.036175010942 0.74820837084 
0.70611500131 0.0044879509364 0.70411090921 0.75091075932 0.046416196002 0.65753266056 0.80653195156 0.11086712439 0.56679514326 
0.86165983382 0.1761565208 0.47342677208 0.89406260673 0.28007128107 0.25886393006 0.92432017257 0.377106424 0.058506098414 
0.92432017257 0.377106424 0.058506098414 0.92432017257 0.377106424 0.058506098414 
FrenetTangent 3 128 double
-0.97925926017 -0.01233039417 0.20223566143 -0.97925926017 -0.01233039417 0.20223566143 -0.98078084534 -0.026217066143 0.19334321518 
-0.98238787507 -0.04857709112 0.18042818279 -0.98306175663 -0.079148260164 0.16530316262 -0.98167999556 -0.11748310612 0.15000702013 
-0.97715510189 -0.16290804717 0.13648763686 -0.9685221051 -0.21450462151 0.12630399553 -0.95498772769 -0.27111582532 0.12039372587 
-0.93596982058 -0.33138399836 0.1189333452 -0.91114240659 -0.3938338509 0.12130297937 -0.88047553656 -0.45700005679 0.1261498221 
-0.84423635286 -0.51957968003 0.13153682602 -0.80291645173 -0.58056798908 0.13515169846 -0.75708952119 -0.63930880623 0.1345351522 
-0.70723538216 -0.69542388577 0.12729388564 -0.65359457461 -0.74861766102 0.11129119302 -0.59612615077 -0.7983959826 0.084837888559 
-0.53461789371 -0.84378985696 0.046929575004 -0.46897312809 -0.88320909006 -0.002430712901 -0.39963362951 -0.9145846217 -0.061870282934 
-0.32799123035 -0.935911378 -0.12841980125 -0.25655500333 -0.94609838869 -0.19767996658 -0.18867303969 -0.94574450789 -0.26451807102 
-0.12785216399 -0.93735119589 -0.32407801488 -0.077044698362 -0.92478789327 -0.37260094861 -0.038261858898 -0.91232631957 -0.40767231543 
-0.012617267669 -0.90374492221 -0.42788540537 -0.00066790279695 -0.90178044251 -0.43219392338 -0.0028310905696 -0.90788029378 -0.41921993881 
-0.019698960268 -0.92201544572 -0.38665161168 -0.052117391847 -0.94225631591 -0.33081235254 -0.10086401849 -0.96384302659 -0.24664360901 
-0.16550465602 -0.97775789653 -0.12883207915 -0.24207750292 -0.96994517351 0.024593555124 -0.32053422487 -0.92458008454 0.20593561607 
-0.38570080336 -0.83423183535 0.39407123109 -0.42463443859 -0.70943497894 0.56248342572 -0.4337537163 -0.57364811894 0.69482771191 
-0.41744211464 -0.44827096354 0.79043989283 -0.3819667742 -0.34484716848 0.85742743938 -0.33174551217 -0.26686727066 0.90483521981 
-0.26882651224 -0.21396843251 0.93912183246 -0.19372375198 -0.18464358692 0.96352366537 -0.10652583517 -0.17729016314 0.97837643292 
-0.0080734101072 -0.19022250996 0.9817078062 0.098897586202 -0.22113327774 0.97021613103 0.20905792207 -0.26651213529 0.94088578848 
0.31492157957 -0.32150928614 0.89300401883 0.40867835897 -0.38066490528 0.82950360385 0.48455717202 -0.43920514331 0.75650723006 
0.54015007617 -0.49404603246 0.68129025607 0.57608579111 -0.54393915583 0.61012732772 0.59477226234 -0.58893049703 0.54718079793 
0.59917806214 -0.62965403107 0.49449110307 0.59212690934 -0.66679813446 0.45251074143 0.57607219617 -0.70082405694 0.4206975945 
0.55315006513 -0.73187517888 0.39797453182 0.5253405722 -0.75980258391 0.38303696518 0.49462166531 -0.78425926517 0.37454881285 
0.46306007494 -0.80481783259 0.37127297685 0.43282430751 -0.82107361304 0.37215754835 0.40611279206 -0.8327166081 0.37637142653 
0.38504256173 -0.83953387091 0.38330810747 0.37152259583 -0.84135234642 0.39255214935 0.36713128325 -0.83794638252 0.40380747996 
0.3730167476 -0.8289356289 0.41680238622 0.38980614021 -0.8137118497 0.43118928409 0.41751329845 -0.79142118002 0.44646966462 
0.45543925777 -0.76104701505 0.46193346205 0.50207948586 -0.72161182459 0.47664721177 0.55510661165 -0.67247388388 0.48952581669 
0.61150137772 -0.6136506352 0.49949871168 0.66787285649 -0.54606718626 0.50572371474 0.72093771796 -0.47159675622 0.50778470472 
0.76801266974 -0.39282669511 0.50580997096 0.80736134618 -0.31261709096 0.50043801928 0.83826768834 -0.23365206989 0.49266011906 
0.86088377611 -0.15809849821 0.48361553831 0.87595182164 -0.087459994802 0.47440400027 0.8845123399 -0.022623855146 0.46596789776 
0.88768178452 0.036023846779 0.45904611086 0.88651677757 0.088436108128 0.45416633282 0.88195063152 0.13476609952 0.45166490009 
0.87477429359 0.17526330678 0.45172193724 0.86564615452 0.2101983797 0.45439341582 0.85511459644 0.23984496507 0.45962312789 
0.84364460855 0.2644507543 0.46725750184 0.8316395184 0.28423092017 0.47706236014 0.81946107301 0.29938121585 0.48872736512 
0.80744747713 0.31006783967 0.50188296094 0.79592439168 0.31643452762 0.51611389484 0.78520467961 0.31859950552 0.53098772698 
0.77557645638 0.31665557788 0.5460864449 0.76728767586 0.31066038287 0.56103453458 0.76051591237 0.3006226909 0.57553587616 
0.75532956626 0.28650006693 0.58940220392 0.75164865219 0.26819199746 0.60257560202 0.7492040285 0.24552811762 0.61514979244 
0.74750006907 0.21827106857 0.62737659135 0.74578174906 0.18611022572 0.63966598054 0.74300454787 0.14866826066 0.65256569793 
0.73780528413 0.10550725415 0.66671701795 0.72845895439 0.056148371988 0.68278467476 0.71283470429 0.00010579940838 0.70133207054 
0.68834549937 -0.063025242318 0.72263980815 0.65192882959 -0.13336741983 0.74645959869 0.60016408264 -0.2104488876 0.77169575587 
0.52973098235 -0.29266063705 0.7960746434 0.43843969835 -0.37664953006 0.81603049111 0.32681321358 -0.45708497657 0.82720399396 
0.1996265173 -0.52735549704 0.82586042 0.065974448726 -0.58155387551 0.81082825678 -0.063032248802 -0.61676911019 0.78461633958 
-0.17777363702 -0.63396396242 0.75265279401 -0.2724358583 -0.63693171107 0.72117730035 -0.34508128153 -0.63036270514 0.6953860576 
-0.39634712592 -0.61836058056 0.67863034723 -0.42807322454 -0.60382239112 0.67242236312 -0.44246519283 -0.58844456502 0.6767256069 
-0.44186236609 -0.57301242711 0.69022779415 -0.42890425824 -0.55778571408 0.71057458049 -0.40684712592 -0.54291679752 0.73465418198 
-0.37975266912 -0.52877202248 0.75907052277 -0.35227767923 -0.51612311603 0.78071593157 -0.32908339371 -0.5060650644 0.79724668113 
-0.31405687294 -0.49970774267 0.80725488693 -0.31405687294 -0.49970774267 0.80725488693 
FrenetNormal 3 128 double
-0.1045192967 -0.82434134917 -0.55636054558 -0.1045192967 -0.82434134917 -0.55636054558 -0.081279958826 -0.84595536082 -0.52702286079 
-0.044758090666 -0.87632717809 -0.47963255755 0.003643661145 -0.91020450565 -0.41414306904 0.0617999653 -0.94104777028 -0.33258060427 
0.12686688146 -0.96235606417 -0.24036555523 0.19572469442 -0.96972271255 -0.14604692656 0.26567777837 -0.96222775516 -0.059439593471 
0.3349484738 -0.94217498443 0.010761905544 0.40261569516 -0.91351274096 0.058267264603 0.46812337482 -0.88013702977 0.078862632333 
0.53070636718 -0.84469205578 0.0696138114 0.58884873446 -0.80774180541 0.028466536931 0.6398632073 -0.76718010274 -0.044830412721 
0.68005772957 -0.71839987135 -0.14636635304 0.70629480227 -0.65614890875 -0.26573720444 0.71852888249 -0.5776521757 -0.38734249566 
0.7207082897 -0.48422580618 -0.49608963887 0.71843487142 -0.3798763666 -0.58270514124 0.7156923113 -0.26912824535 -0.64448002537 
0.71376527622 -0.15646632056 -0.68268398325 0.71214138022 -0.046753123949 -0.70047755137 0.7103377977 0.0545624082 -0.70174294208 
0.70937593924 0.14193746136 -0.69039085588 0.71309670928 0.21007438235 -0.66885113224 0.73203185433 0.25211254641 -0.63290491244 
0.80750623501 0.2431652105 -0.53740521102 0.74787976758 -0.28735554224 0.59841678251 -0.35947275636 -0.39027480334 0.84762309744 
-0.46369516315 -0.33419434251 0.820549168 -0.48845907804 -0.26487940179 0.8314124317 -0.48786727964 -0.16813903728 0.85657152743 
-0.46716088972 -0.037321033604 0.8833843125 -0.42242107814 0.12817859459 0.89729074476 -0.34825020272 0.31720576821 0.88210106956 
-0.24438017575 0.50423941267 0.8282638133 -0.11760456939 0.65923631491 0.74268206277 0.025367733283 0.76306648481 0.64582197072 
0.18641113821 0.8091111755 0.557306014 0.3753685774 0.78991066906 0.48491191572 0.59476325235 0.68534255208 0.42019312223 
0.80909229676 0.47884272086 0.34070412971 0.94979044292 0.2106716128 0.23133435997 0.99418860756 -0.034362816707 0.10202063234 
0.97654399583 -0.21274427036 -0.033191860874 0.92857900543 -0.32998109307 -0.16986320642 0.86226417198 -0.4036264202 -0.30591863402 
0.78004701986 -0.44832583493 -0.43649810142 0.68267193123 -0.47572976246 -0.55465324972 0.57163770826 -0.49563333891 -0.65389442867 
0.44759661501 -0.51690023307 -0.72970639252 0.30882633508 -0.54626590641 -0.77860121645 0.15082928377 -0.5868220272 -0.79554411289 
-0.030117761914 -0.63492816035 -0.77198390631 -0.22926360009 -0.67772403626 -0.69866181544 -0.42657498131 -0.69679267594 -0.57664005417 
-0.59502523542 -0.68143784241 -0.42613077351 -0.72007790468 -0.63681306854 -0.27560284274 -0.80518679933 -0.5757242368 -0.14218235244 
-0.86122969911 -0.50754648934 -0.026076167904 -0.89676512868 -0.43431838831 0.084733945746 -0.91261837329 -0.34843998746 0.21381599534 
-0.88571177033 -0.21943847995 0.40909829311 -0.6682868708 0.051162680168 0.74214219559 0.038328573545 0.44738206125 0.89352124302 
0.52449992277 0.55895139704 0.64224073895 0.6829968587 0.56952920142 0.45733114889 0.73554957506 0.58285077247 0.34532853873 
0.7468787567 0.6090101091 0.26698091654 0.73530753613 0.64632007429 0.20394408274 0.7072084189 0.69138048928 0.14781499004 
0.66520600184 0.74053879067 0.095411082291 0.61135370562 0.79003733925 0.045690800167 0.54775519711 0.83663838779 -0.000672395208 
0.47690162362 0.87793891664 -0.042285931988 0.4013927916 0.91262412045 -0.077466390254 0.32361040189 0.94038723542 -0.1046334328 
0.24531810621 0.96169696542 -0.1223027942 0.16763494575 0.97732679145 -0.12934785535 0.090927360341 0.988028184 -0.12462954212 
0.01495014752 0.99415451196 -0.10692660777 -0.06077989966 0.99531669546 -0.075169671652 -0.13694560324 0.99018169385 -0.028037740898 
-0.2140576383 0.97616522919 0.035787886244 -0.29218008774 0.94910900585 0.11757079291 -0.36980634641 0.90352616186 0.21652653643 
-0.44418503522 0.83265511631 0.3307342011 -0.51007593799 0.73061949051 0.4538917245 -0.56095173735 0.59383851231 0.57679196394 
-0.58993893424 0.42324751251 0.68762896755 -0.59138862554 0.22406806896 0.774630876 -0.56157198252 0.0050314533443 0.8274125893 
-0.49972346391 -0.22057074771 0.83763058974 -0.4103008661 -0.43454824442 0.80176120045 -0.30567301837 -0.61625213131 0.72580804384 
-0.20436939809 -0.75154985965 0.62722082044 -0.12267991265 -0.84080575238 0.52725262048 -0.069645775301 -0.89440100556 0.44181026158 
-0.047233309937 -0.92461591508 0.3779608763 -0.053744441476 -0.94024718197 0.33622428795 -0.085962948744 -0.94574330344 0.31333684021 
-0.14006599309 -0.94228193889 0.30411554584 -0.21193603236 -0.92927798127 0.30253190199 -0.29663029314 -0.90610627044 0.30163205376 
-0.38965673434 -0.87240870364 0.29507741898 -0.48694376122 -0.82824615246 0.27729782609 -0.58494386601 -0.77350783227 0.24398013655 
-0.68021531302 -0.70724899209 0.1926291544 -0.76837398934 -0.6280831822 0.12293465231 -0.843930347 -0.53512430858 0.037729879102 
-0.9013037051 -0.42950096015 -0.056396421854 -0.93701832503 -0.31543241293 -0.1499968381 -0.95202358966 -0.19874189154 -0.2327074242 
-0.95168597909 -0.083842202802 -0.29540528472 -0.94332370086 0.029173774491 -0.33058930151 -0.93299572456 0.14973725184 -0.32725790038 
-0.9168691356 0.3048639965 -0.25769930506 -0.82961876848 0.55765853242 -0.027379923535 -0.32945395173 0.80850557297 0.48762570909 
0.30599972454 0.62699458711 0.71640907052 0.55652969352 0.45643929599 0.69421745103 0.66280796544 0.37797797218 0.64638862421 
0.72090175234 0.34505994693 0.60102770027 0.75735315004 0.33287193865 0.56179398234 0.78003098893 0.33015925869 0.53155105136 
0.79185735344 0.33120840616 0.5130915352 0.79185735344 0.33120840616 0.5130915352 
FrenetBinormal 3 128 double
0.17357136282 -0.56595874535 0.80595513558 0.17357136282 -0.56595874535 0.80595513558 0.17737672256 -0.53260885548 0.82756589185 
0.18141327472 -0.47926082998 0.8587189765 0.18323838679 -0.40652590423 0.89507562965 0.18023637425 -0.31721729748 0.93106822284 
0.17050718823 -0.21755866776 0.96103877385 0.15380759386 -0.11672886582 0.98118173442 0.13196119902 -0.024778144685 0.99094514757 
0.10848969937 0.049909361259 0.99284391562 0.087864195968 0.10192825906 0.9909038869 0.074988902274 0.12849029897 0.98887153241 
0.074938190129 0.12857794133 0.98886398492 0.092640916818 0.10244015743 0.99041590995 0.13187316953 0.052143458279 0.98989419986 
0.19323456904 -0.016948272778 0.9810061964 0.27195915929 -0.095080003931 0.95760012977 0.35825948333 -0.16994651771 0.91802414114 
0.44131991671 -0.23139586409 0.86700212526 0.51372710718 -0.27501936175 0.81268001699 0.57278047952 -0.30183597748 0.76211387928 
0.61883833372 -0.31557595451 0.71934062422 0.65347852669 -0.32048710477 0.68575056022 0.67810227639 -0.32029715798 0.66150361552 
0.69313750511 -0.31816111112 0.6467873734 0.69681934364 -0.31723194406 0.64327808605 0.68019511495 -0.32264523948 0.65820563279 
0.5897240753 -0.3523007181 0.72671157899 -0.66383387015 -0.32282940672 0.67461527332 -0.93315128589 0.15309784468 -0.32525332833 