# vtk DataFile Version 4.2
vtk output
ASCII
DATASET POLYDATA
POINTS 128 float
0 0 0 -0.351598 0.0807758 -0.101608 -0.977113 0.21929 -0.282159 
-1.47635 0.312698 -0.425316 -1.9115 0.358459 -0.547681 -2.38006 0.364591 -0.676139 
-2.87703 0.335399 -0.808909 -3.36495 0.272073 -0.934951 -3.84079 0.168624 -1.0521 
-4.30885 0.0183959 -1.16011 -4.76368 -0.179197 -1.25639 -5.19811 -0.422024 -1.33815 
-5.61117 -0.703163 -1.40504 -6.00395 -1.01452 -1.45759 -6.37795 -1.35007 -1.49644 
-6.73508 -1.70447 -1.5224 -7.07869 -2.07264 -1.53674 -7.41264 -2.44973 -1.5409 
-7.7406 -2.83201 -1.53617 -8.06608 -3.21622 -1.52374 -8.39213 -3.59967 -1.50469 
-8.72156 -3.97991 -1.48005 -9.05683 -4.35469 -1.45099 -9.40021 -4.72183 -1.41874 
-9.75353 -5.07927 -1.38491 -10.1184 -5.42497 -1.35135 -10.4961 -5.75696 -1.32067 
-10.8874 -6.07327 -1.29594 -11.2928 -6.37212 -1.28104 -11.712 -6.65189 -1.28045 
-12.1432 -6.91183 -1.30042 -12.5838 -7.15187 -1.34776 -13.0294 -7.37382 -1.42713 
-13.4745 -7.58056 -1.54183 -13.9138 -7.77639 -1.69285 -14.3415 -7.96634 -1.87963 
-14.7542 -8.15566 -2.09855 -15.149 -8.34953 -2.3444 -15.525 -8.55123 -2.61246 
-15.8819 -8.76288 -2.89837 -16.2198 -8.98559 -3.19842 -16.5396 -9.21985 -3.50943 
-16.8416 -9.46545 -3.82923 -17.1264 -9.72174 -4.15635 -17.3941 -9.98791 -4.48998 
-17.6444 -10.263 -4.82976 -17.8767 -10.5462 -5.17565 -18.0902 -10.8365 -5.52779 
-18.2833 -11.1329 -5.88647 -18.4544 -11.4345 -6.25205 -18.601 -11.7401 -6.62479 
-18.7203 -12.0488 -7.00484 -18.8089 -12.3592 -7.39182 -18.8632 -12.67 -7.78486 
-18.8797 -12.9799 -8.18208 -18.8553 -13.2875 -8.58076 -18.7877 -13.5916 -8.97717 
-18.6755 -13.8914 -9.36674 -18.5189 -14.1864 -9.74447 -18.3193 -14.4769 -10.105 
-18.0792 -14.7634 -10.4434 -17.802 -15.0469 -10.7549 -17.4912 -15.3282 -11.0351 
-17.1511 -15.6084 -11.2801 -16.786 -15.8886 -11.4861 -16.4005 -16.1696 -11.6498 
-15.9993 -16.4519 -11.7669 -15.5874 -16.7354 -11.8327 -15.1704 -17.0192 -11.8426 
-14.7552 -17.3018 -11.7919 -14.3501 -17.5803 -11.6768 -13.9648 -17.8507 -11.4944 
-13.6089 -18.1089 -11.2457 -13.2916 -18.351 -10.9365 -13.0189 -18.5743 -10.575 
-12.7932 -18.7779 -10.1722 -12.6138 -18.9631 -9.73871 -12.4759 -19.1333 -9.28442 
-12.3745 -19.2924 -8.81715 -12.3034 -19.4452 -8.3422 -12.2575 -19.596 -7.86372 
-12.2321 -19.7492 -7.38449 -12.2229 -19.9093 -6.90693 -12.2263 -20.0803 -6.43309 
-12.2388 -20.2663 -5.96509 -12.2575 -20.4713 -5.50522 -12.2796 -20.6985 -5.05601 
-12.3023 -20.9507 -4.62042 -12.3237 -21.2293 -4.20106 -12.3421 -21.5338 -3.79994 
-12.3566 -21.8626 -3.41833 -12.3664 -22.2129 -3.05629 -12.371 -22.5815 -2.7129 
-12.3705 -22.9645 -2.38554 -12.3648 -23.3581 -2.07129 -12.3535 -23.7593 -1.76681 
-12.3363 -24.1649 -1.46876 -12.3122 -24.5725 -1.17376 -12.2804 -24.9794 -0.878628 
-12.2397 -25.3835 -0.580599 -12.1888 -25.7824 -0.277308 -12.126 -26.1744 0.0328241 
-12.0502 -26.5577 0.35075 -11.9605 -26.9316 0.676244 -11.8564 -27.2956 1.00858 
-11.7379 -27.6501 1.34627 -11.6055 -27.9962 1.68757 -11.4606 -28.3355 2.03043 
-11.3045 -28.6703 2.37292 -11.1388 -29.0024 2.71345 -10.9653 -29.3339 3.05072 
-10.7859 -29.6662 3.38403 -10.6023 -30.0004 3.71309 -10.4164 -30.3368 4.03859 
-10.2298 -30.6757 4.36126 -10.0436 -31.0169 4.68143 -9.85876 -31.3595 5.00063 
-9.67723 -31.7007 5.32417 -9.50095 -32.0366 5.65706 -9.33219 -32.3618 6.00105 
-9.172 -32.6734 6.35831 -9.01714 -32.9774 6.73437 -8.86796 -33.2722 7.13006 
-8.74109 -33.5228 7.52664 -8.64626 -33.7077 7.93178 -8.56581 -33.8601 8.43295 
-8.48404 -34.0107 9.07691 -8.44136 -34.0884 9.43986 
LINES 1 129
128 0 1 2 3 4 5 6 7 8 9 10 11 12 13 14 15 16 17 18 19 20 21 22 23 24 25 26 27 28 29 30 31 32 33 34 35 36 37 38 39 40 41 42 43 44 45 46 47 48 49 50 51 52 53 54 55 56 57 58 59 60 61 62 63 64 65 66 67 68 69 70 71 72 73 74 75 76 77 78 79 80 81 82 83 84 85 86 87 88 89 90 91 92 93 94 95 96 97 98 99 100 101 102 103 104 105 106 107 108 109 110 111 112 113 114 115 116 117 118 119 120 121 122 123 124 125 126 127 

CELL_DATA 1
FIELD FieldData 2
Length 1 1 double
61.502279102 
Tortuosity 1 1 double
0.69126623647 
POINT_DATA 128
SCALARS MaximumInscribedSphereRadius float
LOOKUP_TABLE default
0.9796 1.01964 1.05753 1.0893 1.12107 1.15858 1.19714 1.2149 1.23207 
1.23627 1.2397 1.26349 1.28922 1.34925 1.41295 1.49125 1.57145 1.56651 
1.54892 1.47299 1.38726 1.29031 1.19124 1.13783 1.09396 1.06467 1.03875 
1.0176 0.997659 1.04834 1.11867 1.1578 1.18742 1.18164 1.16411 1.0889 
0.992855 1.00315 1.0551 1.14388 1.24821 1.36762 1.49388 1.54239 1.55307 
1.56149 1.56873 1.56798 1.56281 1.52952 1.47956 1.42702 1.37283 1.3288 
1.29163 1.27091 1.26211 1.25617 1.25246 1.25911 1.27437 1.29581 1.32277 
1.34708 1.36887 1.38207 1.38649 1.39608 1.41134 1.43724 1.47576 1.54075 
1.63964 1.72194 1.78101 1.82746 1.85492 1.87381 1.87862 1.89648 1.93718 
1.9811 2.03106 2.08107 2.13119 2.14786 2.09298 2.03992 1.99104 1.94603 
1.91059 1.8848 1.8848 1.88804 1.90064 1.91762 1.94834 1.98393 2.03604 
2.07932 2.08999 2.0922 2.06027 2.02206 1.95599 1.8856 1.79403 1.69912 
1.58598 1.47664 1.39075 1.31093 1.27338 1.24 1.24 1.24 1.24 
1.24 1.24 1.24 1.24 1.24 1.24 1.24 1.24 1.24 
1.24 1.24 
TEXTURE_COORDINATES TCoords 2 float
0 0 0.00787402 0 0.015748 0 0.023622 0 0.0314961 
0 0.0393701 0 0.0472441 0 0.0551181 0 0.0629921 0 
0.0708661 0 0.0787402 0 0.0866142 0 0.0944882 0 0.102362 
0 0.110236 0 0.11811 0 0.125984 0 0.133858 0 
0.141732 0 0.149606 0 0.15748 0 0.165354 0 0.173228 
0 0.181102 0 0.188976 0 0.19685 0 0.204724 0 
0.212598 0 0.220472 0 0.228346 0 0.23622 0 0.244094 
0 0.251969 0 0.259843 0 0.267717 0 0.275591 0 
0.283465 0 0.291339 0 0.299213 0 0.307087 0 0.314961 
0 0.322835 0 0.330709 0 0.338583 0 0.346457 0 
0.354331 0 0.362205 0 0.370079 0 0.377953 0 0.385827 
0 0.393701 0 0.401575 0 0.409449 0 0.417323 0 
0.425197 0 0.433071 0 0.440945 0 0.448819 0 0.456693 
0 0.464567 0 0.472441 0 0.480315 0 0.488189 0 
0.496063 0 0.503937 0 0.511811 0 0.519685 0 0.527559 
0 0.535433 0 0.543307 0 0.551181 0 0.559055 0 
0.566929 0 0.574803 0 0.582677 0 0.590551 0 0.598425 
0 0.606299 0 0.614173 0 0.622047 0 0.629921 0 
0.637795 0 0.645669 0 0.653543 0 0.661417 0 0.669291 
0 0.677165 0 0.685039 0 0.692913 0 0.700787 0 
0.708661 0 0.716535 0 0.724409 0 0.732283 0 0.740157 
0 0.748031 0 0.755906 0 0.76378 0 0.771654 0 
0.779528 0 0.787402 0 0.795276 0 0.80315 0 0.811024 
0 0.818898 0 0.826772 0 0.834646 0 0.84252 0 
0.850394 0 0.858268 0 0.866142 0 0.874016 0 0.88189 
0 0.889764 0 0.897638 0 0.905512 0 0.913386 0 
0.92126 0 0.929134 0 0.937008 0 0.944882 0 0.952756 
0 0.96063 0 0.968504 0 0.976378 0 0.984252 0 
0.992126 0 1 0 
FIELD FieldData 7
Curvature 1 128 double
0 0.027504648318 0.051627173713 0.074590239795 0.095767682689 0.11443289159 0.12980573443 0.14115005409 0.14790377477 
0.14979757303 0.14693196042 0.13977076395 0.12905265605 0.11567541164 0.100535151 0.08446497227 0.068143639284 0.052154512542 
0.037078689607 0.023901812274 0.015820849489 0.018502358062 0.027892666349 0.038636302008 0.049246859953 0.059347044887 0.068760972375 
0.077360698124 0.085040718459 0.091633498349 0.097006222938 0.10104359131 0.10370692303 0.10504789575 0.10522721186 0.10448246862 
0.10311213696 0.10140293042 0.099619807053 0.097971257453 0.096613089248 0.0956666943 0.095255632528 0.095567954567 0.096680894382 
0.098716078038 0.10185389103 0.10614320379 0.11156542786 0.11798309465 0.12523268705 0.13307905325 0.14115036152 0.14914180376 
0.15667249275 0.16355710414 0.16959039162 0.17479797262 0.17935439955 0.18362275899 0.1879415625 0.19289236634 0.19892925962 
0.20640571648 0.21547407308 0.22606139277 0.23771081167 0.24957665526 0.26041521118 0.26866984543 0.27269475647 0.27111488347 
0.2631781873 0.24906857691 0.22977717958 0.20685615444 0.18207048636 0.15703357282 0.13314927807 0.11154976197 0.093342039726 
0.079643923283 0.071403763966 0.068741091688 0.070522384644 0.074616145659 0.079131079784 0.082589735222 0.084121651122 0.083305479867 
0.080034949469 0.074621630733 0.067491151997 0.059364823549 0.051065868049 0.043651663723 0.038305617449 0.035952246346 0.036652465104 
0.039365773884 0.04276399551 0.04578543196 0.047782584952 0.048447921612 0.047704156612 0.045624604545 0.042449285476 0.038398420887 
0.033751784207 0.028748859351 0.02364181753 0.018886996075 0.015681692476 0.016261992062 0.021561207395 0.030200358777 0.040710177656 
0.052135630825 0.063426353422 0.073376541061 0.080632347387 0.083657753473 0.081471340844 0.073435932882 0.05987906208 0.041645241523 
0.020263792581 0 
Torsion 1 128 double
0 0 0.0081934048233 0.011268718754 0.014480195775 0.017836814045 0.021349615314 0.025086251706 0.029231207014 
0.033956629154 0.03962174816 0.046758163542 0.056042301673 0.068708316441 0.08676699498 0.11403227695 0.15869979486 0.24044059786 
0.41758256842 0.88673138947 1.8421388021 1.3092053088 0.61431338669 0.37363740499 0.28509506591 0.24929913591 0.23523506964 
0.23062643089 0.23051937162 0.23277853937 0.23582791922 0.23925859518 0.24257252993 0.24518583405 0.24601630697 0.24408357018 
0.23835579642 0.22738562899 0.21065878814 0.18849994524 0.16135271773 0.13103103401 0.099339623783 0.068549585186 0.041209896453 
0.019191745922 0.0042688887751 -0.0032098758633 -0.0035987410008 0.0017265802562 0.011489018434 0.024138440092 0.038721355703 0.054535749124 
0.070859461854 0.087559247321 0.10423658028 0.12052741144 0.13586646107 0.14948456557 0.16038442979 0.16723544289 0.1696631949 
0.16715255232 0.16017475209 0.14974401333 0.13744616818 0.12452066356 0.11230096 0.10209407123 0.094488672377 0.089911978669 
0.08901845101 0.092498700967 0.10091950388 0.1157413105 0.13931982805 0.17450107995 0.22597100436 0.29932880602 0.39494548638 
0.49749582551 0.56089300996 0.54096380896 0.45230918194 0.34902031453 0.26410910571 0.20448236523 0.16662790052 0.14647343337 
0.14166316262 0.15245507574 0.18153386527 0.23415562513 0.31752919982 0.42987022279 0.5381772565 0.5670888422 0.48199249067 
0.34702270064 0.225146882 0.1340266019 0.067485794246 0.019152943093 -0.016307186401 -0.042412465894 -0.057946632481 -0.060527694576 
-0.041488783818 0.015746259539 0.14473627122 0.41042014081 0.81014718179 0.87640708619 0.5129722211 0.24123025495 0.10864494152 
0.045918883041 0.016209520504 0.0023215656033 -0.003407035042 -0.0056058311142 -0.0058623861417 -0.0052894924709 -0.0045415398982 -0.0028381030493 
0 0 
Abscissas 1 128 double
0 0.50367847792 1.0073565901 1.5110336627 2.0147107353 2.5183901519 3.0220699976 3.5257512145 4.0294324701 
4.5331066272 5.0367803599 5.5404612861 6.044142897 6.5478204664 7.0514976032 7.5551771468 8.0588570014 8.5625347518 
9.0662121892 9.569889217 10.073566176 10.577246443 11.080927334 11.584605879 12.088283934 12.591966045 13.095649094 
13.599315967 14.102978733 14.606656256 15.110337884 15.614023379 16.117710054 16.621404309 17.125101081 17.628759305 
18.132403604 18.63606976 19.139744479 19.643431204 20.147123001 20.650807744 21.154489285 21.658170419 22.161851356 
22.665538322 23.169228426 23.672902072 24.176566573 24.680230643 25.183894456 25.687572672 26.191260004 26.694944452 
27.198626947 27.702300385 28.205967269 28.709645367 29.213332158 29.717006767 30.220671258 30.724351768 31.22804653 
31.731737087 32.235423636 32.739102608 33.242773852 33.746439474 34.250098933 34.753782854 35.257495778 35.761169883 
36.264794243 36.768449399 37.272147719 37.775842354 38.279531443 38.783220141 39.286908197 39.790592172 40.294268998 
40.797943395 41.301613249 41.805286718 42.308967416 42.812649032 43.316332609 43.820010612 44.323675789 44.827345358 
45.331025795 45.834706351 46.338387224 46.842070633 47.345761373 47.849450194 48.353133016 48.856815707 49.360497954 
49.864177197 50.367845373 50.871514504 51.375187485 51.878862321 52.382545383 52.886224215 53.389882264 53.893547208 
54.397249922 54.900947129 55.40461045 55.90827501 56.411948194 56.915624407 57.419324896 57.92302306 58.426699066 
58.930374044 59.434038348 59.937704378 60.441397302 60.94509001 61.448776634 61.952460361 62.456127268 62.959794175 
63.463471428 63.96715219 
ParallelTransportNormals 3 128 double
-0.27750005352 0 0.96072562176 -0.27524320381 -0.00042598222522 0.961372345 -0.27217261306 -0.00082523381286 0.96223896622 
-0.26678875468 -0.0011484967084 0.96373070386 -0.2614048963 -0.001471759604 0.9652224415 -0.25319097944 -0.000759545638 0.96737909552 
-0.24445897256 0.00014222986937 0.96965747373 -0.23146236574 0.0037211922891 0.97273376093 -0.21834515723 0.0073758648011 0.97583261276 
-0.20246165145 0.015181837397 0.97899836552 -0.18641276105 0.023235997787 0.98216811799 -0.17106294933 0.034211095517 0.98448025839 
-0.15577967327 0.045464197017 0.98671077451 -0.14239838839 0.057782427218 0.98795353046 -0.12922068058 0.070214662038 0.98909056282 
-0.11806754202 0.082196469912 0.98946595153 -0.10717605362 0.094120065756 0.98974290737 -0.097761072567 0.1049859817 0.98955659757 
-0.088565681799 0.11569459656 0.98930138963 -0.080501903062 0.12500883879 0.98881176652 -0.072628321007 0.13408872062 0.98828274388 
-0.066292789232 0.14101392533 0.98774592735 -0.060246836322 0.14753345476 0.98720764342 -0.057293411387 0.15049669771 0.98694381805 
-0.054986539228 0.1527164302 0.98673737354 -0.059018403469 0.14944635653 0.98698169831 -0.064514323497 0.14490830419 0.98733013711 
-0.081509403354 0.13308549092 0.98746027598 -0.10142389318 0.11941322047 0.98753499279 -0.13909370016 0.097624959972 0.98427373387 
-0.18170365359 0.073578548917 0.98008429053 -0.23719390374 0.046063698963 0.96812145321 -0.29661404998 0.017490596644 0.95378688245 
-0.35777042954 -0.010647442644 0.93107749609 -0.41950345185 -0.038640987561 0.90558664216 -0.47130615466 -0.063419168127 0.87769965066 
-0.51952146842 -0.087035778526 0.84894703972 -0.55700354031 -0.10762275482 0.8222892694 -0.59028054037 -0.1270227804 0.79645221619 
-0.61594392293 -0.14410428656 0.77377169364 -0.63839089327 -0.16020632216 0.75242466386 -0.65693037501 -0.17540789313 0.73272812044 
-0.67369582368 -0.1902006455 0.71378091186 -0.68901308917 -0.20566752494 0.6944043734 -0.70362574113 -0.22146240092 0.67481894448 
-0.71787323811 -0.23926203284 0.65303042525 -0.7319307604 -0.25810465451 0.63009573129 -0.74575250067 -0.28015311397 0.60329238311 
-0.75944322467 -0.30398295148 0.57433935172 -0.77205043875 -0.33203956554 0.53992049189 -0.78401500111 -0.36260316659 0.50225973826 
-0.79279559739 -0.39756331282 0.45847845777 -0.79956078585 -0.43530641316 0.41082296588 -0.80044484714 -0.47573286362 0.35906802327 
-0.79734717246 -0.51797603924 0.30453760414 -0.78717987208 -0.56001669041 0.2502672347 -0.77189670358 -0.60191078668 0.19618504776 
-0.75155381504 -0.6404904778 0.14759975716 -0.72728907221 -0.67650113073 0.10327518183 -0.70152163937 -0.70815285986 0.066482792665 
-0.67450610515 -0.73618416245 0.035946472165 -0.64928261891 -0.75980319165 0.012550407614 -0.62565357024 -0.77949649197 -0.0044927620818 
-0.60568338156 -0.79531159415 -0.016355530921 -0.58919925628 -0.80743165342 -0.023282553126 -0.5765701893 -0.81653458992 -0.027429775932 
-0.56787363385 -0.82255978566 -0.028741349488 -0.56280643694 -0.82606646339 -0.029356739534 -0.5617190123 -0.82681146076 -0.029208729714 
-0.56365886847 -0.82542602795 -0.030372583308 -0.56918804191 -0.82151463527 -0.033091857181 -0.57643435748 -0.81612677178 -0.038736778531 
-0.5858810427 -0.80884693818 -0.048130664957 -0.59522703559 -0.80109590246 -0.060522434685 -0.60443189335 -0.79268440744 -0.077116180325 
-0.61258820787 -0.78433852861 -0.095764695151 -0.61916659291 -0.77609139412 -0.11750538663 -0.62467563686 -0.76784272986 -0.14054796287 
-0.62843290267 -0.75959155955 -0.16572326674 -0.63138154111 -0.7508937755 -0.19224864031 -0.63291379099 -0.74141370458 -0.22113879066 
-0.63383786805 -0.73092181671 -0.25154065585 -0.63362427548 -0.71853718827 -0.28477038828 -0.63299811062 -0.70452739374 -0.31938002615 
-0.63154698498 -0.68726799111 -0.35674886008 -0.62994414604 -0.66808787486 -0.3946078064 -0.62801679907 -0.64479943728 -0.43351508138 
-0.62622542134 -0.62045834568 -0.47104942262 -0.62474690801 -0.59369510356 -0.50542465158 -0.62352390551 -0.5675086568 -0.53715164512 
-0.62293336124 -0.5427499342 -0.56232354148 -0.62252507385 -0.5202426642 -0.58445546591 -0.62260422956 -0.50375686805 -0.59845703424 
-0.62270699922 -0.49016553022 -0.60988053723 -0.62287802147 -0.4849401899 -0.61385252914 -0.62289796636 -0.48264845242 -0.6156438504 
-0.62244575085 -0.48952507143 -0.6106199458 -0.62164653562 -0.49890788307 -0.60369021455 -0.61967139969 -0.51678373846 -0.59030197368 
-0.61718218556 -0.53624928855 -0.57542086026 -0.61279825132 -0.56157392091 -0.55503751858 -0.60795412502 -0.58709169931 -0.53409290799 
-0.60125287729 -0.61338892539 -0.5108832768 -0.59440252725 -0.63881772789 -0.4881369244 -0.58689055202 -0.66039299562 -0.46744632099 
-0.57966862871 -0.6805634661 -0.44799137045 -0.57387155226 -0.69383303079 -0.43460642323 -0.56855631376 -0.70587464494 -0.42245250586 
-0.56588012195 -0.71119072252 -0.41704099052 -0.5636133902 -0.7156981968 -0.41245109552 -0.56386645915 -0.7152295589 -0.41291741901 
-0.56430469634 -0.71442507252 -0.41370497591 -0.56603108262 -0.71128420846 -0.41672723854 -0.5677100121 -0.70822622557 -0.41966452318 
-0.56900864278 -0.70583241742 -0.42192083 -0.56989423026 -0.70421314249 -0.42342758516 -0.56684204178 -0.7099779337 -0.41778843767 
-0.56350583676 -0.71630347437 -0.41147077714 -0.55722096316 -0.72845073327 -0.39810877332 -0.55087700334 -0.74072590305 -0.3844325401 
-0.5436124581 -0.75499397193 -0.36586049545 -0.53593912811 -0.77005887329 -0.34544718314 -0.51674205155 -0.80758668572 -0.27312806561 
-0.49961699153 -0.84101121818 -0.20660846456 -0.49452583399 -0.85060463255 -0.17377142071 -0.48943467645 -0.86019804692 -0.14093437686 
-0.48814507982 -0.86262807089 -0.13261671219 -0.48814507982 -0.86262807089 -0.13261671219 
FrenetTangent 3 128 double
-0.96379478045 0.04786858225 -0.26231320976 -0.96379478045 0.04786858225 -0.26231320976 -0.96514176962 0.028560715369 -0.26016465955 
-0.96655743995 -0.0021063489484 -0.25644156952 -0.96706056534 -0.043223177027 -0.25084979557 -0.96549478986 -0.093472939062 -0.24306916797 
-0.96070778178 -0.15110777804 -0.23282396236 -0.95175171881 -0.21398172892 -0.21995564425 -0.93807066602 -0.27966131192 -0.2044822148 
-0.91963306861 -0.34560896182 -0.18662653783 -0.89697210856 -0.40940901973 -0.16680914553 -0.87112205402 -0.46898452354 -0.14560179836 
-0.84346899207 -0.52275117299 -0.12365787703 -0.81555584631 -0.56968200713 -0.10164188263 -0.78889440719 -0.60927687289 -0.08017048374 
-0.7648169809 -0.64146806037 -0.059780542392 -0.74438630045 -0.66649410532 -0.04092240564 -0.72835980308 -0.6847752789 -0.023975292833 
-0.71718851372 -0.69681748634 -0.0092750479048 -0.711045434 -0.70314027397 0.0028541030622 -0.70986012284 -0.70423923137 0.012071081098 
-0.71334708543 -0.70057978435 0.017997262581 -0.72103642598 -0.69260242287 0.020207826301 -0.73229882201 -0.68073915827 0.018238247703 
-0.74635501376 -0.66544680154 0.011608090322 -0.76229405397 -0.64723083681 -0.00013840110319 -0.77909458928 -0.62666551231 -0.01737689935 
-0.79564676139 -0.60441629617 -0.04033822034 -0.81080154419 -0.58123488395 -0.069042491488 -0.82342621389 -0.55795176084 -0.10324293122 
-0.83247506659 -0.53545200357 -0.14239527861 -0.83707515217 -0.51462252708 -0.18565786878 -0.83659679454 -0.49629784772 -0.23193587413 
-0.8307041879 -0.481196759 -0.27996469658 -0.81937079875 -0.46986503984 -0.32841793265 -0.802857767 -0.4626275482 -0.37602547467 
-0.78165254397 -0.45957058994 -0.42168017901 -0.75638318672 -0.46055232738 -0.46451698417 -0.72773284204 -0.46522428296 -0.50395563014 
-0.69635311604 -0.47308186459 -0.53970907642 -0.6627964858 -0.48352616217 -0.57175455303 -0.62747394573 -0.49591241202 -0.60028936941 
-0.59062845736 -0.50960612671 -0.62566734051 -0.55231613209 -0.5240220207 -0.64834235714 -0.51242722421 -0.53864379825 -0.6687908481 
-0.47072481286 -0.553031284 -0.68744057887 -0.42684969314 -0.56682606035 -0.70463292343 -0.38035735775 -0.57974857769 -0.72056912719 
-0.33077965041 -0.591576738 -0.73526987286 -0.27768317147 -0.60213478001 -0.74854910526 -0.22072046983 -0.6112824198 -0.76001070876 
-0.15967380047 -0.61891653146 -0.76905565763 -0.094530068846 -0.62496762398 -0.77490614597 -0.025526396906 -0.62941254048 -0.77665195355 
0.046821770541 -0.63229141149 -0.77331448503 0.12172947427 -0.63371414742 -0.76392952192 0.19817374286 -0.6338727003 -0.7476179288 
0.27494426446 -0.6330336252 -0.72365328771 0.35073742201 -0.63151965864 -0.6914956121 0.42424175285 -0.62967525624 -0.65079029404 
0.49417707184 -0.6278235821 -0.60135394854 0.55934376948 -0.62621351458 -0.54313090659 0.61863754089 -0.62495950792 -0.47614410263 
0.67099043502 -0.62400956197 -0.40047959085 0.71532224676 -0.62310579866 -0.31631194565 0.75049135659 -0.6217714513 -0.22397094907 
0.77527173689 -0.6193232852 -0.12406612108 0.78838689433 -0.61492617307 -0.017660875192 0.78864931208 -0.60768372495 0.093556148858 
0.77519369651 -0.59678863438 0.20716674145 0.74776647931 -0.58172592791 0.32006286449 0.70701161461 -0.56245509101 0.42869435196 
0.65461772783 -0.53952600244 0.52951612167 0.59321724407 -0.51407884399 0.61952904977 0.5260464488 -0.48770051262 0.69672329062 
0.45649281233 -0.46217654989 0.76026781401 0.38764686932 -0.43924624532 0.81042744319 0.3220023767 -0.42042046154 0.84826947659 
0.26134957802 -0.4068617082 0.87530563146 0.20680566413 -0.39936689767 0.89316151861 0.15893169299 -0.39838796067 0.90334254287 
0.11787173793 -0.40404879961 0.90711125058 0.08348778041 -0.41618368118 0.90543963578 0.055464864895 -0.43434301642 0.89903825995 
0.033376892152 -0.45782665147 0.88841473438 0.016744130277 -0.48569311695 0.87396900989 0.0050549958157 -0.51679317252 0.85609535909 
-0.0022150763079 -0.54984257091 0.83526537139 -0.0055840665426 -0.58349670667 0.81209630679 -0.0055536397104 -0.61645981305 0.78736678618 
-0.0025885459245 -0.64756935481 0.76200211952 0.0028991303245 -0.67588314475 0.73700310019 0.010572160596 -0.70071502866 0.7133629357 
0.020171753348 -0.72163415492 0.69198066939 0.031515938906 -0.73844130619 0.6735808659 0.044489332815 -0.75112084119 0.65866393646 
0.059020222869 -0.75980206284 0.64747002911 0.075055252735 -0.7647102242 0.63998826711 0.092529212891 -0.76614405655 0.63597297849 
0.11133328886 -0.76446710227 0.63497633683 0.13129695664 -0.76010043277 0.63640273513 0.15217579045 -0.75352205194 0.63956785882 
0.1736446393 -0.74525864776 0.64376788299 0.19532015953 -0.7358776609 0.64833178502 0.21677705189 -0.72595079143 0.65268917426 
0.23756777991 -0.71601701556 0.65641540458 0.25726022535 -0.70654128869 0.65925456678 0.27545212976 -0.6978677697 0.66114045424 
0.29178705862 -0.69019428885 0.66218740252 0.30596986732 -0.68354367806 0.66268429925 0.3177668244 -0.6777612239 0.66307161656 
0.32700589953 -0.67252486362 0.66391072404 0.33357351278 -0.66735975831 0.66585258471 0.33740693166 -0.66166934818 0.66958960277 
0.33847496627 -0.65477840596 0.67579578003 0.33678124629 -0.64596492727 0.68506036587 0.33235443551 -0.63452333475 0.69779700977 
0.32524922472 -0.61983736057 0.7141530566 0.31558772549 -0.60147013244 0.73391965998 0.30360436607 -0.57930181639 0.75646136347 
0.28970091012 -0.5536607937 0.78072601353 0.27450817371 -0.52546989711 0.80531152345 0.25891101757 -0.49626337443 0.82866624656 
0.24399666765 -0.46808293662 0.84933149631 0.23094781353 -0.44323525654 0.8661441074 0.2208814321 -0.42394793782 0.87833907972 
0.21468530358 -0.41203511339 0.88551526568 0.21468530358 -0.41203511339 0.88551526568 
FrenetNormal 3 128 double
-0.078080917856 -0.99129711062 0.10598777634 -0.078080917856 -0.99129711062 0.10598777634 -0.060030940313 -0.99168467333 0.11383231038 
-0.031310558207 -0.99151602518 0.12615712726 0.007252463215 -0.98975632104 0.14258270141 0.054445939658 -0.98518992137 0.16259292261 
0.10862533128 -0.97660072352 0.18561132567 0.16775555369 -0.96299279976 0.21095720377 0.22948100407 -0.94376729868 0.23799528294 
0.29128350508 -0.91884322211 0.26623495796 0.35070027844 -0.88868993797 0.29536335058 0.40546272649 -0.8541912567 0.32551078999 
0.45364067751 -0.81645873725 0.357218793 0.49361611174 -0.77652803526 0.39159589461 0.52386400435 -0.73495888515 0.43058325803 
0.54256780213 -0.69136285609 0.47711380332 0.54651325361 -0.64330429419 0.53617427084 0.5286193013 -0.5838389162 0.6161929521 
0.46942293489 -0.49289747962 0.73259414602 0.30297971692 -0.30271806465 0.90363989756 -0.15808795873 0.17600375798 0.97161251252 
-0.61906424781 0.64196697305 0.45236916627 -0.69239079366 0.72131778235 0.017194351396 -0.66749720281 0.71223517646 -0.21718318915 
-0.62124761732 0.69031299682 -0.37083603438 -0.56426795734 0.66468693613 -0.48968658268 -0.49796162471 0.6354484555 -0.59011819216 
-0.42246634844 0.60138747524 -0.6781263076 -0.33832544509 0.56164059896 -0.75504684014 -0.24623137709 0.51528456119 -0.82088484572 
-0.14753127903 0.46194307175 -0.8745530974 -0.043974480928 0.40154918849 -0.91478111822 0.062410190989 0.33427841151 -0.94040571652 
0.16922762751 0.2608300778 -0.95043657369 0.2739141881 0.18237031506 -0.94430508086 0.37363035373 0.10104286562 -0.92205786048 
0.46586633917 0.019346441116 -0.88464358317 0.54843465822 -0.05945888153 -0.83407677528 0.61989139079 -0.13171869879 -0.77355339054 
0.67998218994 -0.19431514152 -0.70701191442 0.72950863477 -0.24476300265 -0.63867693268 0.77008603168 -0.28130167443 -0.5725704077 
0.80384808126 -0.30371717419 -0.51145296984 0.83280031687 -0.31204889985 -0.45724076407 0.85860101214 -0.30784187659 -0.40992399414 
0.88227591634 -0.29266305549 -0.36869708894 0.90432099962 -0.26900679481 -0.33141948342 0.9248388607 -0.23941534077 -0.29555604602 
0.94370734149 -0.20642097719 -0.2584701797 0.96067023555 -0.17227843712 -0.21779081394 0.97533706179 -0.13857406326 -0.17179885007 
0.98713470883 -0.10667732491 -0.11910086052 0.99525996279 -0.077186911085 -0.059158999598 0.99866982922 -0.05087185732 0.0084039478516 
0.99613323307 -0.028058497424 0.083254445446 0.98629731495 -0.0091164656979 0.16472551891 0.96775434647 0.0055327693528 0.25183509158 
0.93918269796 0.015747691474 0.34305665721 0.89937738404 0.021383112765 0.43664984092 0.84747081836 0.022846366003 0.53035012548 
0.7829402358 0.020735999451 0.62175124085 0.70600829263 0.016542347996 0.70801033993 0.61750211466 0.012054668072 0.78647684223 
0.51884306092 0.0092966277806 0.85481895794 0.41203819593 0.010506041933 0.91110600271 0.29908230358 0.017329085296 0.95406995471 
0.18202571742 0.030979802141 0.98280562171 0.062544498853 0.051561479302 0.99670938569 -0.057400167985 0.078729144829 0.99524215268 
-0.17602632711 0.11089238498 0.9781194258 -0.29116846174 0.14592138132 0.9454775922 -0.40056212113 0.18108163171 0.89819787896 
-0.50198527501 0.21349339591 0.83811177869 -0.59398241647 0.23994676098 0.76786095149 -0.67589124101 0.25748924758 0.69055797563 
-0.74809558727 0.26317646429 0.60917250509 -0.81191841767 0.25359986204 0.52580946456 -0.86901021366 0.22429036753 0.44103863729 
-0.91995649582 0.16951429921 0.35347552695 -0.96258671164 0.080322002389 0.2587956694 -0.98720943952 -0.052468494455 0.15054759917 
-0.9724611458 -0.23192143065 0.023060136954 -0.89100319327 -0.43806898749 -0.11920097223 -0.7393058229 -0.62305524577 -0.25539980609 
-0.55478995782 -0.74786833738 -0.3645559664 -0.38199729249 -0.81089157153 -0.4433203444 -0.24002441984 -0.83170601737 -0.5006529522 
-0.12762466208 -0.82828157841 -0.54558369889 -0.037378866559 -0.81141962655 -0.58326752866 0.039167413448 -0.78690882227 -0.61582499069 
0.10935862858 -0.75761772658 -0.64347188807 0.180316596 -0.72457222084 -0.66519246989 0.25987423405 -0.68696387738 -0.67863540554 
0.35637572028 -0.64146980283 -0.67934736185 0.47926708006 -0.58022233485 -0.65851735597 0.63244847077 -0.48919428645 -0.60058128669 
0.79968070599 -0.35224115255 -0.48624781636 0.93345335571 -0.17187351314 -0.31484016294 0.99148938488 0.012148124461 -0.12961953071 
0.98701019988 0.15952949924 0.019005373298 0.95811742405 0.26210424897 0.11537922001 0.92873602762 0.33036583605 0.16824923589 
0.90711687246 0.37552620272 0.190050127 0.89485401495 0.40425275515 0.18925116083 0.89010813247 0.42154369205 0.17322940919 
0.89130133834 0.4293459819 0.14575305174 0.89597754431 0.42996117801 0.11116485731 0.90170612793 0.42597639914 0.073960572142 
0.9057973675 0.42177303516 0.040480067101 0.90426136625 0.4263961769 0.02230878388 0.88949085057 0.45527798579 0.039089415526 
0.83580634742 0.5336723962 0.12892448623 0.66193743629 0.66871397418 0.33861549164 0.30083758321 0.74979126854 0.58932996034 
-0.030015725808 0.71030797733 0.70325076149 -0.20362136198 0.66038151012 0.72279637661 -0.28552283137 0.63744733536 0.71563790244 
-0.32557577795 0.63564092207 0.69997216445 -0.34735858012 0.64653227162 0.67921869716 -0.36115878115 0.66472024734 0.6539964278 
-0.37163670928 0.68663387656 0.62483603919 -0.38085991598 0.70957800707 0.59282777961 -0.38882205425 0.73179049944 0.55973214581 
-0.39597878567 0.75137797478 0.52785598445 -0.40137741583 0.76752993506 0.49979392638 -0.4055095129 0.77912874827 0.47803810369 
-0.40817726597 0.78583005708 0.46460998797 -0.40817726597 0.78583005708 0.46460998797 
FrenetBinormal 3 128 double
-0.25495684233 0.12263212181 0.95914460393 -0.25495684233 0.12263212181 0.95914460393 -0.2547501732 0.12548224662 0.95883082712 
-0.25453165664 0.12996743864 0.95829124 -0.25444304814 0.13606682892 0.95746778187 -0.25466733283 0.14374849039 0.95628495811 
-0.25542336509 0.15302766492 0.95464204723 -0.25695668886 0.16388010039 0.95242667578 -0.25954170055 0.17633160962 0.9494973771 
-0.26349371678 0.19047723928 0.94566880171 -0.26916602902 0.20643267358 0.94070994472 -0.27703130587 0.22452352584 0.93426058566 
-0.28769809718 0.24520673216 0.92579882446 -0.30201290665 0.26919625035 0.91450619627 -0.32126643032 0.29768629345 0.8989831764 
-0.34738331252 0.33246974111 0.87680596795 -0.38368255022 0.37675614482 0.84311476562 -0.43595140961 0.43613637471 0.78723022751 
-0.51505605908 0.52105418654 0.68060252034 -0.63452161659 0.64339375848 0.42828353882 -0.68637220464 0.68780068492 -0.23626979181 