# vtk DataFile Version 4.2
vtk output
ASCII
DATASET POLYDATA
POINTS 128 float
0 0 0 -0.305087 0.0625492 -0.121956 -0.9154 0.165858 -0.347801 
-1.44798 0.202668 -0.501245 -1.90559 0.165454 -0.58081 -2.38814 0.0729901 -0.630389 
-2.87656 -0.0815051 -0.645919 -3.32802 -0.306876 -0.615296 -3.73884 -0.58933 -0.549506 
-4.11666 -0.909864 -0.464651 -4.46874 -1.25617 -0.369055 -4.8022 -1.61858 -0.268313 
-5.12417 -1.99059 -0.166174 -5.44132 -2.36714 -0.0657198 -5.75786 -2.74545 0.0303664 
-6.07664 -3.12387 0.119205 -6.39769 -3.50269 0.195988 -6.71975 -3.88331 0.254744 
-7.04008 -4.26981 0.286575 -7.35235 -4.66719 0.279188 -7.6307 -5.07995 0.205362 
-7.84203 -5.50887 0.0369182 -7.95723 -5.93061 -0.219755 -7.95495 -6.31549 -0.542481 
-7.85574 -6.66047 -0.900593 -7.6958 -6.97417 -1.26261 -7.49514 -7.26745 -1.61724 
-7.26604 -7.55175 -1.962 -7.01635 -7.83548 -2.29369 -6.75185 -8.12561 -2.60851 
-6.47794 -8.42919 -2.90073 -6.19979 -8.75367 -3.16319 -5.92211 -9.11014 -3.38512 
-5.65217 -9.5104 -3.55087 -5.42291 -9.95558 -3.61698 -5.27936 -10.4359 -3.53094 
-5.25069 -10.8915 -3.29644 -5.3524 -11.2417 -2.94973 -5.55626 -11.4689 -2.53916 
-5.81306 -11.5891 -2.11612 -6.09592 -11.6157 -1.70092 -6.39048 -11.5603 -1.29674 
-6.68312 -11.4311 -0.907037 -6.96062 -11.2347 -0.535112 -7.21025 -10.979 -0.180314 
-7.41949 -10.673 0.160583 -7.57515 -10.3283 0.493119 -7.66329 -9.95855 0.824546 
-7.66678 -9.587 1.16552 -7.56801 -9.24462 1.52801 -7.3697 -8.97988 1.91261 
-7.09003 -8.84989 2.31142 -6.7679 -8.87085 2.70591 -6.45447 -9.02963 3.0713 
-6.17614 -9.30105 3.39488 -5.9415 -9.65267 3.67238 -5.75404 -10.0627 3.89826 
-5.61374 -10.5169 4.06603 -5.5182 -11.0012 4.16946 -5.46321 -11.5011 4.20297 
-5.44234 -12.0034 4.16664 -5.44744 -12.4963 4.06537 -5.46981 -12.9745 3.91038 
-5.5004 -13.4382 3.71785 -5.53208 -13.8916 3.5034 -5.55933 -14.3419 3.28204 
-5.57794 -14.7967 3.06906 -5.58481 -15.2629 2.88003 -5.5782 -15.7437 2.73167 
-5.55762 -16.2386 2.64153 -5.52333 -16.7412 2.6217 -5.47624 -17.2394 2.67863 
-5.4166 -17.722 2.81122 -5.34387 -18.1789 3.01092 -5.25636 -18.6027 3.26823 
-5.15118 -18.9895 3.57305 -5.02472 -19.3349 3.91672 -4.87259 -19.6342 4.29211 
-4.69037 -19.8813 4.69147 -4.47366 -20.068 5.10615 -4.22068 -20.1885 5.52527 
-3.93283 -20.2395 5.93541 -3.61402 -20.2235 6.3253 -3.2711 -20.1498 6.6867 
-2.9101 -20.0297 7.01596 -2.53577 -19.8766 7.31518 -2.15139 -19.7021 7.58811 
-1.75842 -19.5157 7.84015 -1.35774 -19.3253 8.07626 -0.949629 -19.1364 8.30056 
-0.534456 -18.9529 8.5163 -0.1128 -18.7769 8.7255 0.314408 -18.6085 8.92955 
0.745701 -18.4449 9.12903 1.17937 -18.2829 9.32449 1.61338 -18.1179 9.51662 
2.0457 -17.9461 9.70671 2.47438 -17.7658 9.89713 2.89805 -17.5774 10.0908 
3.31654 -17.3845 10.2914 3.73022 -17.1929 10.5028 4.14038 -17.0106 10.7291 
4.54811 -16.847 10.9736 4.95392 -16.7132 11.2388 5.35694 -16.6205 11.5258 
5.75346 -16.5808 11.8331 6.13826 -16.6036 12.1576 6.50341 -16.6933 12.4926 
6.84118 -16.8508 12.8316 7.14507 -17.0699 13.1685 7.4099 -17.3427 13.4985 
7.63324 -17.6593 13.82 7.81357 -18.0097 14.1328 7.95061 -18.3853 14.4383 
8.04458 -18.7777 14.7387 8.09647 -19.1797 15.0363 8.10816 -19.5846 15.3341 
8.08383 -19.9861 15.6362 8.02847 -20.3784 15.9463 7.9483 -20.7566 16.2668 
7.85228 -21.116 16.6027 7.75737 -21.4516 16.9678 7.67796 -21.7579 17.3685 
7.61392 -22.0277 17.7776 7.57837 -22.2547 18.1898 7.64454 -22.4386 18.7056 
7.83161 -22.5722 19.3219 7.94617 -22.6247 19.6346 
LINES 1 129
128 0 1 2 3 4 5 6 7 8 9 10 11 12 13 14 15 16 17 18 19 20 21 22 23 24 25 26 27 28 29 30 31 32 33 34 35 36 37 38 39 40 41 42 43 44 45 46 47 48 49 50 51 52 53 54 55 56 57 58 59 60 61 62 63 64 65 66 67 68 69 70 71 72 73 74 75 76 77 78 79 80 81 82 83 84 85 86 87 88 89 90 91 92 93 94 95 96 97 98 99 100 101 102 103 104 105 106 107 108 109 110 111 112 113 114 115 116 117 118 119 120 121 122 123 124 125 126 127 

CELL_DATA 1
FIELD FieldData 2
Length 1 1 double
54.918526188 
Tortuosity 1 1 double
0.77199301881 
POINT_DATA 128
SCALARS MaximumInscribedSphereRadius float
LOOKUP_TABLE default
0.62 0.782624 0.945249 1.04061 1.12965 1.04718 0.959978 1.04308 1.13519 
1.12492 1.10737 1.10504 1.10412 1.25533 1.42413 1.49054 1.54262 1.48234 
1.40351 1.23212 1.04307 0.969862 0.921767 0.83327 0.735834 0.742505 0.774329 
0.853048 0.944404 0.97261 0.981833 1.02032 1.06855 1.13677 1.21225 1.23567 
1.23909 1.2602 1.28767 1.36651 1.46484 1.51326 1.54142 1.55 1.55 
1.54768 1.54426 1.47735 1.37812 1.25589 1.12116 1.11348 1.17705 1.28293 
1.41286 1.39994 1.3018 1.26086 1.25616 1.30113 1.37961 1.39443 1.3635 
1.25623 1.09001 1.05015 1.1157 1.13587 1.11518 1.04804 0.936093 0.838251 
0.754884 0.778836 0.919983 1.05182 1.1728 1.25178 1.27829 1.34042 1.45015 
1.52817 1.56113 1.581 1.581 1.5823 1.58572 1.62318 1.72091 1.78103 
1.7688 1.73049 1.6375 1.60662 1.71788 1.80809 1.8455 1.87125 1.86483 
1.85792 1.84951 1.8275 1.75948 1.70381 1.69472 1.70119 1.77296 1.7993 
1.61348 1.44016 1.33234 1.24749 1.29962 1.36783 1.54738 1.70856 1.71818 
1.72281 1.67699 1.6406 1.72642 1.80441 1.74197 1.6796 1.61916 1.56437 
1.57269 1.581 
TEXTURE_COORDINATES TCoords 2 float
0 0 0.00787402 0 0.015748 0 0.023622 0 0.0314961 
0 0.0393701 0 0.0472441 0 0.0551181 0 0.0629921 0 
0.0708661 0 0.0787402 0 0.0866142 0 0.0944882 0 0.102362 
0 0.110236 0 0.11811 0 0.125984 0 0.133858 0 
0.141732 0 0.149606 0 0.15748 0 0.165354 0 0.173228 
0 0.181102 0 0.188976 0 0.19685 0 0.204724 0 
0.212598 0 0.220472 0 0.228346 0 0.23622 0 0.244094 
0 0.251969 0 0.259843 0 0.267717 0 0.275591 0 
0.283465 0 0.291339 0 0.299213 0 0.307087 0 0.314961 
0 0.322835 0 0.330709 0 0.338583 0 0.346457 0 
0.354331 0 0.362205 0 0.370079 0 0.377953 0 0.385827 
0 0.393701 0 0.401575 0 0.409449 0 0.417323 0 
0.425197 0 0.433071 0 0.440945 0 0.448819 0 0.456693 
0 0.464567 0 0.472441 0 0.480315 0 0.488189 0 
0.496063 0 0.503937 0 0.511811 0 0.519685 0 0.527559 
0 0.535433 0 0.543307 0 0.551181 0 0.559055 0 
0.566929 0 0.574803 0 0.582677 0 0.590551 0 0.598425 
0 0.606299 0 0.614173 0 0.622047 0 0.629921 0 
0.637795 0 0.645669 0 0.653543 0 0.661417 0 0.669291 
0 0.677165 0 0.685039 0 0.692913 0 0.700787 0 
0.708661 0 0.716535 0 0.724409 0 0.732283 0 0.740157 
0 0.748031 0 0.755906 0 0.76378 0 0.771654 0 
0.779528 0 0.787402 0 0.795276 0 0.80315 0 0.811024 
0 0.818898 0 0.826772 0 0.834646 0 0.84252 0 
0.850394 0 0.858268 0 0.866142 0 0.874016 0 0.88189 
0 0.889764 0 0.897638 0 0.905512 0 0.913386 0 
0.92126 0 0.929134 0 0.937008 0 0.944882 0 0.952756 
0 0.96063 0 0.968504 0 0.976378 0 0.984252 0 
0.992126 0 1 0 
FIELD FieldData 7
Curvature 1 128 double
0 0.047541721831 0.088051125528 0.12409680447 0.15298824342 0.17206715725 0.17969623969 0.17611122311 0.16353945207 
0.14555429964 0.1261985774 0.10953273811 0.099525418987 0.09944819762 0.1104502899 0.13142661175 0.16057847837 0.19601732354 
0.23495716857 0.27253148784 0.30154613548 0.31428046942 0.30617171425 0.27869068768 0.23860394389 0.19473388343 0.15570095804 
0.13075330323 0.1302733111 0.15912813759 0.21536240062 0.29987216418 0.41926830561 0.58044264251 0.77582775325 0.95900846212 
1.0456211532 0.98598222724 0.82541291334 0.64594184646 0.49459786942 0.38123840915 0.30091678881 0.24759620886 0.21870923902 
0.21471214495 0.23613574117 0.28128141974 0.34668387746 0.42674779526 0.51146616047 0.58502242108 0.62938916715 0.63354227259 
0.59954200808 0.5399853049 0.46911123483 0.39692262883 0.32843912016 0.26532462358 0.20758573662 0.15460198446 0.10555017153 
0.059705831622 0.018181636184 0.030571460796 0.071469724752 0.11245143698 0.15222382751 0.18947577347 0.22258117397 0.25000393449 
0.2708276945 0.28509587874 0.29372958413 0.29792332116 0.29874605999 0.29639679785 0.2906087897 0.28055732291 0.26581274943 
0.24638790663 0.22314179462 0.19754925034 0.1711802536 0.14551457049 0.12159657069 0.10008131029 0.081187077659 0.064753264443 
0.05049198843 0.037860401791 0.026396406014 0.015782974129 0.0073662984602 0.011130825268 0.022806137038 0.036891428247 0.053224137364 
0.071867713406 0.092943152089 0.11616622511 0.14103961376 0.16654421752 0.19121222363 0.21324629734 0.23051678886 0.24123923946 
0.24430058218 0.23953646614 0.22778785204 0.21051348391 0.18943265021 0.16621751854 0.14236783196 0.11943557281 0.099324136199 
0.084619616146 0.077951396189 0.079601442104 0.085971227622 0.091938198208 0.09329496782 0.087367866226 0.073346099153 0.05205546136 
0.025622453288 0 
Torsion 1 128 double
0 0 -0.015384911571 -0.021972225786 -0.030086840003 -0.040808178603 -0.05611061296 -0.079346774225 -0.11607246479 
-0.17459225947 -0.26419854431 -0.38302169438 -0.48696696513 -0.49021800704 -0.37808441197 -0.23368862791 -0.11676921139 -0.036374024868 
0.016789259493 0.053380944988 0.082128097392 0.11027606857 0.14528309512 0.19685510009 0.28072054215 0.42475013036 0.66603045744 
0.96640519587 1.0368602497 0.78084668834 0.50747399508 0.32719794602 0.21239845313 0.13147269346 0.06701413257 0.01078050776 
-0.042919742974 -0.10136531795 -0.1699183608 -0.2491656176 -0.33970091594 -0.44667028353 -0.57856038545 -0.73464949261 -0.87663457089 
-0.92342050219 -0.84212843546 -0.70138009145 -0.56995217918 -0.46719315066 -0.38841625829 -0.32477866233 -0.2694977703 -0.21785112103 
-0.1676151164 -0.11926171958 -0.075571302419 -0.039883266164 -0.014413778403 -0.00017584275383 0.0018770882296 -0.012452892728 -0.061784861681 
-0.2615492389 -3.064142947 -1.0495667571 -0.18061268928 -0.076319525237 -0.054732181188 -0.056097174215 -0.067565264683 -0.084684258303 
-0.10510196103 -0.12644363166 -0.14598008728 -0.16100246312 -0.16961675348 -0.17150265845 -0.16771404944 -0.16055967676 -0.15235927296 
-0.14532684223 -0.14059150139 -0.13890811891 -0.14048031348 -0.14484741837 -0.15092923591 -0.1566732154 -0.16056443637 -0.16104390336 
-0.16027647235 -0.17141542485 -0.23939992381 -0.58953043154 -2.8073227362 -1.2259575679 -0.22281154977 -0.017556076975 0.045045500192 
0.065213033469 0.067164715451 0.060092050262 0.048795494306 0.035035581221 0.019666682078 0.0028876571147 -0.015455354485 -0.035286163676 
-0.057001689684 -0.081286730445 -0.10861463913 -0.14046481877 -0.17926147117 -0.23006624327 -0.30131232299 -0.40489730039 -0.55067801912 
-0.70952008764 -0.77202622656 -0.66452769131 -0.48602647443 -0.33475430765 -0.2283834487 -0.15566682218 -0.10427212724 -0.066705590405 
0 0 
Abscissas 1 128 double
0 0.50250819745 1.0050163949 1.5075234357 2.0100303679 2.5125371276 3.0150438826 3.5175536874 4.0200636531 
4.5225744694 5.0250853461 5.5275937669 6.0301019607 6.5326072667 7.0351122388 7.5376186162 8.0401251904 8.5426333997 
9.0451418789 9.5476508526 10.050159921 10.552668638 11.05517728 11.557686856 12.060196639 12.562703667 13.065210029 
13.567718194 14.070226844 14.572733011 15.075238432 15.577748441 16.080259979 16.582760345 17.085256655 17.587779128 
18.090311643 18.592822131 19.095324695 19.59782844 20.100332633 20.60283939 21.105347189 21.607854768 22.11036225 
22.612872411 23.115383837 23.617885698 24.120382692 24.622888545 25.125399214 25.62790951 26.130419597 26.632926569 
27.135431772 27.637944596 28.140461968 28.642969221 29.145470062 29.647981494 30.150500071 30.653012395 31.155520227 
31.658020639 32.160515322 32.663008289 33.165499824 33.66800678 34.170527619 34.67303724 35.17553604 35.678042926 
36.18055811 36.683080792 37.185611662 37.688126268 38.190621897 38.693120201 39.19562185 39.698127444 40.200638305 
40.703148275 41.205656978 41.708167373 42.210680334 42.713187945 43.215686812 43.718195487 44.220721524 44.723241094 
45.225748227 45.728254035 46.230757068 46.733259597 47.235760971 47.738266373 48.240781883 48.743294616 49.245799683 
49.74830764 50.250824415 50.753334778 51.255823432 51.758320371 52.260848559 52.763369865 53.265862279 53.768360456 
54.270885557 54.773404168 55.275888816 55.778379192 56.280903735 56.783423823 57.285913052 57.7884055 58.29092451 
58.793441623 59.295939544 59.798438518 60.30095115 60.803463737 61.305975536 61.808487234 62.310995355 62.813502407 
63.315997493 63.818492579 
ParallelTransportNormals 3 128 double
-0.35326388631 0 0.93552371783 -0.29062181491 -0.0051336459491 0.95437782599 -0.22797974351 -0.010267291898 0.97323193416 
-0.14916808472 -0.00088287261644 0.98562267873 -0.068837664957 0.0098651851079 0.99740633889 0.0013558979766 0.038661434924 0.9963076356 
0.071269837236 0.06795554141 0.99485357424 0.10475473093 0.091854094924 0.98943586747 0.1363154933 0.11546766286 0.98380880648 
0.14574109143 0.12450977867 0.98138918987 0.15359004241 0.13251399666 0.97919803365 0.15225299773 0.13087227405 0.97963242875 
0.15006664409 0.12833871737 0.98030957427 0.14036312373 0.11682461871 0.98304133129 0.12979026902 0.10427195141 0.98601069702 
0.10627697259 0.076283838217 0.99061092089 0.080952977045 0.046135910939 0.99543934356 0.029820007081 -0.019900864509 0.99523901659 
-0.025574353964 -0.091863346845 0.99420837887 -0.10157755152 -0.23180216761 0.95071649178 -0.18151458341 -0.38471637657 0.899119561 
-0.20745123766 -0.53003362589 0.80309190574 -0.22168320555 -0.6737042195 0.69743380495 -0.20858225322 -0.73991628156 0.63530064905 
-0.18943327854 -0.78898890419 0.58279836455 -0.18215237825 -0.80333972203 0.56688913533 -0.17773875929 -0.8093018848 0.55982064812 
-0.18843094977 -0.79737413201 0.57261297871 -0.20319350445 -0.78062581848 0.5907569432 -0.23840520472 -0.73912829704 0.62560361995 
-0.2797637359 -0.69019138426 0.66547098315 -0.35554123728 -0.57821323942 0.71587043467 -0.44278042712 -0.44524205039 0.76977712404 
-0.54164310757 -0.17778707463 0.75486415315 -0.64472715276 0.13850909143 0.71495758114 -0.63843786479 0.42715448956 0.53712030019 
-0.59017029357 0.70518732121 0.30634420682 -0.49910357346 0.83102047612 0.10577916492 -0.39264083665 0.90210327207 -0.083918140923 
-0.2975991953 0.91398262542 -0.22962294372 -0.20689117227 0.90339783567 -0.35863523943 -0.13242135281 0.86872374848 -0.46218635876 
-0.064547716376 0.8242642553 -0.55539479586 -0.019026888753 0.77617468302 -0.62492814266 0.016704522499 0.726495317 -0.6840929797 
0.030964168626 0.69955601831 -0.71357705831 0.035076009151 0.68336393956 -0.72903366575 0.046633239556 0.71687780984 -0.69042268111 
0.061978973596 0.77568399813 -0.62430000501 0.14202394721 0.83751231568 -0.48437695021 0.2572320892 0.90098311991 -0.30434438008 
0.39151102028 0.88426588327 -0.12692970386 0.5364853685 0.82257701271 0.049016786263 0.64549187789 0.72226390834 0.17932723538 
0.73407253606 0.60001640703 0.28372133772 0.79576478815 0.46846282243 0.35595530563 0.84141235619 0.33135616913 0.40899887621 
0.86923752038 0.19888784039 0.43604230085 0.88576798076 0.069358986184 0.4466084899 0.89267247899 -0.037636658674 0.44084563278 
0.89308376915 -0.12943249133 0.42406799162 0.89208626267 -0.18910535934 0.40881753951 0.89007657095 -0.22569867825 0.39466433466 
0.88951241489 -0.235930847 0.39115432756 0.89006451672 -0.2258066575 0.39586311005 0.89066509739 -0.19426868335 0.40832151909 
0.89130611493 -0.14486917321 0.42724399958 0.88983977373 -0.078656778901 0.44345053708 0.88647622025 0.0026919136927 0.45721196626 
0.88029891817 0.089894315639 0.45851270072 0.87140699142 0.18274421003 0.44779171101 0.86004629411 0.27155081407 0.42432120366 
0.84615203196 0.35620800933 0.3877665604 0.82886258536 0.43586466896 0.34077765418 0.80786541069 0.5100604688 0.28239395925 
0.78009698706 0.58078648113 0.21182945098 0.74442723724 0.64746362107 0.12705123121 0.69709223583 0.70681056928 0.02893366891 
0.63518055668 0.75699784858 -0.085852483485 0.56257368473 0.79176620974 -0.20338686584 0.47568535777 0.80594545297 -0.32459100181 
0.38961957375 0.80690659869 -0.43234198268 0.30472323675 0.78907496895 -0.52096599593 0.23045443332 0.76911881892 -0.59282311231 
0.17231397099 0.74593849765 -0.6392347921 0.12540322771 0.72652732034 -0.6749859107 0.096840694464 0.71327453797 -0.6933187649 
0.07580058468 0.70353790782 -0.7065655108 0.068076701257 0.70002558547 -0.71080880592 0.063298572987 0.69784055077 -0.71345022073 
0.064185146786 0.69820789694 -0.71301121158 0.063971950285 0.6981445386 -0.71308980425 0.061454868552 0.6971789066 -0.71425270985 
0.056933882194 0.69542939077 -0.71629471653 0.047826358395 0.69188572144 -0.72034880998 0.039724042338 0.68867551169 -0.72396597405 
0.034144094846 0.6863020523 -0.72648675088 0.033372906508 0.68606573993 -0.72670117566 0.045873867228 0.69172794165 -0.72055008129 
0.065024596678 0.70007409889 -0.71038620873 0.10445633718 0.71660600419 -0.68798383557 0.15067777939 0.73388852008 -0.66007866926 
0.21988927344 0.75371261688 -0.6135409466 0.29397560491 0.7701918325 -0.56132328401 0.38645123226 0.77405318947 -0.48767924622 
0.47914492036 0.77150478224 -0.41119119609 0.57275397341 0.74204977361 -0.322764687 0.66263908956 0.70746974695 -0.23518880951 
0.73512794845 0.64894835544 -0.15158663154 0.80326330856 0.58846220703 -0.070222257507 0.8486162559 0.51769423596 -0.00056859606606 
0.89070483282 0.44696380152 0.067250402198 0.91332401593 0.37645724352 0.12412708222 0.9338149729 0.30712677638 0.17961017067 
0.93956678579 0.24594138952 0.22544186603 0.94431527181 0.18697217859 0.26973827873 0.94078937984 0.14627964078 0.30137330527 
0.93740306257 0.10843672409 0.33089392216 0.93542917485 0.099430617277 0.33901771948 0.93414502265 0.093155846348 0.3440984766 
0.94180345181 0.12229348047 0.30972550958 0.94940361261 0.15261178379 0.27245626184 0.95595729077 0.20413455816 0.1831706649 
0.9615672307 0.25569451475 0.091900337048 0.93381152534 0.30856904003 -0.069539689977 0.90833375038 0.35710411558 -0.21773021964 
0.90833375038 0.35710411558 -0.21773021964 0.90833375038 0.35710411558 -0.21773021964 
FrenetTangent 3 128 double
-0.97751659573 -0.12198248725 -0.17199295882 -0.97751659573 -0.12198248725 -0.17199295882 -0.97629188797 -0.14962710829 -0.15641572154 
-0.97236302141 -0.19246798331 -0.13215986531 -0.96359859497 -0.24763809639 -0.10076269639 -0.94815706446 -0.31118615124 -0.064508607132 
-0.92523070836 -0.37849139024 -0.026313567189 -0.89545265389 -0.44502960099 0.010639496461 -0.86073449688 -0.50720207796 0.043384075291 
-0.82362000293 -0.56286214212 0.069543509769 -0.78650204375 -0.61136536938 0.087446671151 -0.75102918572 -0.65325188566 0.096005916933 
-0.71781905407 -0.68978842539 0.094486685884 -0.68641918782 -0.72253470276 0.082293996736 -0.65539628921 -0.75298916782 0.05884740634 
-0.62246940622 -0.78228896982 0.023575538383 -0.58466677872 -0.81092009053 -0.023945033486 -0.53856172422 -0.83842170293 -0.083667898656 
-0.48071390433 -0.86315150462 -0.15454326988 -0.40847258906 -0.88230752013 -0.23384521358 -0.32115083537 -0.89251109517 -0.31667978456 
-0.22113039255 -0.89111552337 -0.39625051861 -0.11401754904 -0.87779297091 -0.46527357407 -0.0072522251055 -0.85533286453 -0.51802808426 
0.092172367368 -0.8289187105 -0.55172278009 0.17941812456 -0.80440625941 -0.56633886182 0.25212551862 -0.78679975818 -0.56336388186 
0.30969076939 -0.77956401762 -0.54440019268 0.35224763679 -0.78460963533 -0.5102051769 0.3797874939 -0.802491068 -0.46018425142 
0.39148023194 -0.83245224418 -0.39213070417 0.38514437535 -0.87200588681 -0.30210849626 0.35683331579 -0.9157357977 -0.18465625782 
0.30088843844 -0.95304975214 -0.034092778741 0.21169023658 -0.96554306262 0.15137317449 0.089065750156 -0.92809217138 0.361541441 
-0.053827269622 -0.8213002109 0.56795122029 -0.19068617512 -0.65131884372 0.73445391035 -0.29719052501 -0.4503579174 0.84193559022 
-0.36401015715 -0.25255464014 0.89650028401 -0.39408377669 -0.077147884393 0.91583086915 -0.39427516508 0.069856786778 0.916333522 
-0.37077390247 0.18854938484 0.9093821214 -0.32807033767 0.28043002778 0.90206920636 -0.26926422508 0.34644296728 0.89859559732 
-0.19661045526 0.3863392611 0.90115831252 -0.11205002698 0.39852841468 0.91028561131 -0.017769628055 0.38020403493 0.92473192448 
0.083103127186 0.32780475361 0.94108337238 0.18565848426 0.23814810742 0.95331862782 0.28251182401 0.11061034495 0.95286537396 
0.36404357365 -0.049971057234 0.93004041306 0.42046204954 -0.23134819373 0.87731959864 0.44541488906 -0.41548014944 0.79308374213 
0.43880260065 -0.58404316109 0.68289520694 0.40647230719 -0.72423815907 0.55700929296 0.35729886433 -0.83101720266 0.4263190477 
0.30011828713 -0.90560736042 0.29967369334 0.24203473791 -0.95281151322 0.18321955659 0.18800715324 -0.97883473744 0.08084470985 
0.14108352675 -0.98998429035 -0.0051520234563 0.10282702573 -0.99197804954 -0.073526539494 0.073752922486 -0.98957485634 -0.12370169816 
0.053714762836 -0.9863770892 -0.15548299637 0.042213710354 -0.9847367536 -0.168853572 0.038625694628 -0.98572720044 -0.16385951918 
0.042354288248 -0.9891580561 -0.14061455938 0.052896275023 -0.99363601565 -0.099445726356 0.069848481447 -0.99670783295 -0.041166556589 
0.092870351265 -0.99514480727 0.032586966938 0.12162220718 -0.98540753467 0.11907992839 0.1557195496 -0.964246926 0.21442781438 
0.19470759349 -0.9292884882 0.31386598851 0.23807224521 -0.8793982962 0.41228660262 0.2852412864 -0.81471848247 0.50484770264 
0.33553948897 -0.73644973486 0.58741385697 0.38810704149 -0.64655609247 0.65676338482 0.44181186389 -0.54757468329 0.7106083613 
0.4952261462 -0.44254592333 0.74759893651 0.54671995703 -0.33496027499 0.76739748681 0.59468185247 -0.22859849027 0.77077637781 
0.63780316541 -0.12718982126 0.7596248229 0.67530754744 -0.033995679708 0.73675233975 0.70704023293 0.048603885719 0.70550107817 
0.73338274815 0.11929142699 0.66926773429 0.75505650338 0.17777668511 0.63109834965 0.77290320728 0.22460320168 0.59344252795 
0.7877054703 0.26089029613 0.55808274068 0.80008254387 0.28808741997 0.52618776254 0.81046145995 0.30774555073 0.49844247204 
0.81909615081 0.3213736462 0.47518467489 0.82612049674 0.33030007098 0.45653782754 0.83160700918 0.33556448239 0.44252261009 
0.83562583599 0.33783369514 0.4331256823 0.83828079084 0.337347947 0.42834761394 0.83972289193 0.33391069387 0.42821619924 
0.84014207611 0.32690276414 0.43277693417 0.83972317911 0.31536263563 0.44205360594 0.83858137593 0.29806271705 0.45600426824 
0.83665865383 0.27364875262 0.47446670816 0.83363221334 0.24075766846 0.49708457827 0.82882437243 0.19816236608 0.52324166151 
0.82113790819 0.14497480822 0.5520098194 0.80907912297 0.080857621324 0.58211082952 0.79088134703 0.0062911543125 0.61193718329 
0.76475168256 -0.077230370452 0.63967986829 0.72923272591 -0.1670926708 0.663550805 0.68359444111 -0.25968665976 0.68210078348 
0.62812321319 -0.35083828084 0.69453130221 0.56419257091 -0.43638849835 0.70089358781 0.49407084621 -0.51278521718 0.70210064803 
0.42057138372 -0.57749578072 0.69972732864 0.34666707696 -0.62912858421 0.69571485702 0.27518801484 -0.66732637661 0.69206001442 
0.20864515264 -0.69250180473 0.69058558538 0.14915262539 -0.70556226693 0.69277368731 0.098400901689 -0.7076710459 0.69965631087 
0.057634268717 -0.7000647904 0.71174966126 0.027617869648 -0.68397781182 0.72897983937 0.0085560707808 -0.66065331171 0.75064238848 
-1.5444747283e-05 -0.63146297662 0.77540602843 0.00066516870119 -0.59809893765 0.80142199766 0.0085407401341 -0.56273543602 0.82659293779 
0.020861934994 -0.52807304178 0.84894266132 0.034514665904 -0.4971543275 0.86697538171 0.046494955297 -0.47295943359 0.87985657542 
0.054390208477 -0.4579313339 0.88732215044 0.054390208477 -0.4579313339 0.88732215044 
FrenetNormal 3 128 double
0.02235698774 -0.87104039871 0.49070234248 0.02235698774 -0.87104039871 0.49070234248 0.054453718044 -0.86914799205 0.49154507474 
0.10431899386 -0.86456780463 0.49156897656 0.16884045419 -0.85588598571 0.48882725016 0.24369658515 -0.84221640503 0.48091943347 
0.32381426052 -0.82390637162 0.46510495105 0.40423382378 -0.80289209972 0.43813159201 0.48102732918 -0.78249769935 0.39536066963 
0.55158957525 -0.7664702466 0.32904756731 0.61334410532 -0.75665789758 0.22644609623 0.65978185746 -0.74808375172 0.071123842584 
0.67616498266 -0.72302859057 -0.14152940839 0.65067518604 -0.66076861747 -0.3741746069 0.60195765793 -0.56781809432 -0.56145310563 
0.56640871814 -0.47107187395 -0.67621923486 0.56189426927 -0.38347840626 -0.73295234641 0.58680922387 -0.30196270205 -0.75131448898 
0.6327831547 -0.21945991002 -0.74257849889 0.69063006561 -0.13123830226 -0.71120082993 0.75185537906 -0.036964827897 -0.65829103782 
0.80942448561 0.058942211184 -0.58425834854 0.85897356527 0.14820500909 -0.49010171337 0.89992129291 0.22028544314 -0.37631900047 
0.93447497224 0.26336686975 -0.23957132168 0.96269604198 0.26208851111 -0.067275129876 0.96744216234 0.19164611777 0.16531009672 
0.88281347083 0.023077387269 0.46915648766 0.62793182765 -0.20610503244 0.75048140245 0.29766784817 -0.36498651898 0.88214437204 
0.035292120514 -0.41224611063 0.91038871396 -0.14818143525 -0.38154922072 0.91239380446 -0.28312034519 -0.29438473758 0.91278721311 
-0.3888818515 -0.15525955087 0.90811088389 -0.46995284472 0.035239100041 0.88198782847 -0.51818870326 0.26681542836 0.81258230045 
-0.51960967804 0.50874080629 0.68643176973 -0.4678071846 0.71805470775 0.51531919692 -0.37072334566 0.86702355768 0.33291793494 
-0.24159349211 0.95519302846 0.17099375123 -0.087402478321 0.99510044347 0.046215951711 0.092880643157 0.99503012408 -0.035892036593 
0.30373841959 0.94994554728 -0.07311928379 0.54239946105 0.83774248961 -0.063169183575 0.7787886761 0.62722936788 -0.0084568342279 
0.94568257325 0.31741139999 0.070245809912 0.99063888709 -0.02707822885 0.13379598241 0.93174368929 -0.32919225408 0.15325194071 
0.81778283265 -0.56210239778 0.1235804719 0.67968292103 -0.7317700622 0.050435135829 0.52861878357 -0.84684633159 -0.05842492908 
0.36809830729 -0.90954521459 -0.1929537219 0.20270707879 -0.91855202242 -0.33937003744 0.040904859161 -0.87543775093 -0.48159686122 
-0.1065672008 -0.78842896239 -0.60582439945 -0.23078058637 -0.67125974504 -0.70437963886 -0.32724147333 -0.53890031253 -0.77620839424 
-0.39621722302 -0.40412050903 -0.82443830962 -0.4412747755 -0.27627096785 -0.853786229 -0.46792695274 -0.16163744806 -0.86886000155 
-0.4826030455 -0.064230459627 -0.87348082322 -0.49298362013 0.013378646742 -0.86993572297 -0.51043579983 0.069103307479 -0.8571347777 
-0.56536346117 0.098305643332 -0.81896285463 -0.86807445483 0.047520404353 -0.49415438079 0.014442108542 -0.1634140669 0.98645185804 
0.21681851316 -0.12828685482 0.9677459456 0.26549826065 -0.082007303054 0.9606172369 0.28845472686 -0.01932417727 0.95729851495 
0.30478432898 0.059570410513 0.95055661536 0.32022708102 0.15251006378 0.93498411592 0.33671343792 0.25588981169 0.90617021856 
0.35487145063 0.3650536779 0.86069859171 0.3744424734 0.47478065552 0.79647734635 0.39425273639 0.5798404926 0.71298652371 
0.41227497108 0.67547742506 0.61135881155 0.42585083696 0.75779515857 0.49436581831 0.43253009492 0.82398332061 0.36601803828 
0.4305534539 0.87244052578 0.23123851824 0.41968168124 0.90268446042 0.095016058316 0.4010275461 0.91527950598 -0.03795172194 
0.37709895805 0.911537818 -0.16399750669 0.35100933031 0.89336716642 -0.28051302287 0.32595279626 0.86294290173 -0.38611439103 
0.30484129384 0.82224810509 -0.48060361967 0.28975878241 0.77296724369 -0.56441251598 0.28202448763 0.71619897278 -0.63837388712 
0.28168752993 0.65312516024 -0.7029080029 0.28797352753 0.58502095387 -0.75816998818 0.29953413483 0.51352500245 -0.80409661977 
0.31451081167 0.44117180183 -0.84050603247 0.33348805307 0.36648433849 -0.86860517389 0.36109895523 0.2786780074 -0.88991354228 
0.42097407376 0.11265302461 -0.9000500682 0.54514485783 -0.50398790589 -0.6699352765 0.15757360476 -0.90449709715 0.39630235973 
-0.0051311654818 -0.79311559271 0.60904952816 -0.045032614273 -0.77082509906 0.63545316925 -0.058494060708 -0.78294564036 0.61933397218 
-0.069007832386 -0.80668349468 0.5869409327 -0.084282900016 -0.83400205089 0.54528613761 -0.10882038622 -0.86022944187 0.49816004546 
-0.14445226377 -0.88291527208 0.44675962869 -0.19174457759 -0.89997150986 0.39151666428 -0.2502525229 -0.90919289676 0.33277913286 
-0.31851578364 -0.90831525119 0.27112930502 -0.39428060202 -0.89516702085 0.2078913458 -0.47467632336 -0.86809816906 0.14521693056 
-0.55647935922 -0.82641829232 0.085811006743 -0.63689799272 -0.77023650928 0.033115957492 -0.71370916023 -0.70038057253 -0.0092891457541 
-0.78537851106 -0.61785608795 -0.037874119904 -0.85103868293 -0.52283671697 -0.048733228256 -0.90948347361 -0.41403666251 -0.037595921737 
-0.95806085991 -0.28655707814 0.0021046784366 -0.98816637933 -0.13171351349 0.078605070644 -0.97745592783 0.063248101853 0.20144375582 
-0.88067510648 0.30012961631 0.36651544338 -0.65759596194 0.53681042512 0.52858501523 -0.35713102648 0.69914379636 0.61939921047 
-0.085763765129 0.77254988185 0.62913532459 0.1114640735 0.79647242623 0.59431257312 0.24389274433 0.80283132572 0.54403877775 
0.33078856269 0.80495006574 0.49257925094 0.38645985021 0.80664894222 0.44717588061 0.42019168434 0.80835183755 0.41231814796 
0.43735069384 0.80978873842 0.39110940888 0.43735069384 0.80978873842 0.39110940888 
FrenetBinormal 3 128 double
-0.20966990766 0.47582443886 0.85418360626 -0.20966990766 0.47582443886 0.85418360626 -0.20949687843 0.47137405144 0.85668988646 
-0.20887245419 0.46419671111 0.86075182909 -0.20729362941 0.45402043202 0.86654186195 -0.20398567475 0.44026663101 0.87438843663 
-0.1977181352 0.42180867502 0.88486438548 -0.18643915992 0.39662694115 0.89884787879 -0.16657981407 0.36116949293 0.91750082448 
-0.13190538752 0.30936963337 0.94174911664 -0.072274086924 0.23173521776 0.97009032837 0.025358682243 0.11675904378 0.99283647341 
0.16594192308 -0.037703917734 0.98541447764 0.32473142882 -0.20329396813 0.92369965988 0.4561827289 -0.3325506351 0.82541346787 
0.54010462166 -0.40757239512 0.73632312228 0.58518337982 -0.44198746442 0.6798584362 0.60465378853 -0.45372632129 0.65461914223 
0.60704169651 -0.45476018732 0.65168516227 0.59680839175 -0.45200657954 0.66295534962 0.57582604137 -0.44950811617 0.68291055313 
0.54399756579 -0.44993215017 0.70825680982 0.49916371331 -0.45553789688 0.7371029859 0.43599205475 -0.46891365346 0.76813469769 
0.34389065261 -0.49348927374 0.79887893686 0.20254744465 -0.53314180306 0.82142215121 -0.022099443268 -0.58670086591 0.80950213622 