# vtk DataFile Version 4.2
vtk output
ASCII
DATASET POLYDATA
POINTS 128 float
0 0 0 -0.27942 0.0722446 0.168975 -0.838437 0.204277 0.493059 
-1.32733 0.289165 0.743332 -1.75274 0.32367 0.924577 -2.21172 0.329593 1.10056 
-2.6969 0.292827 1.26528 -3.17651 0.192462 1.39815 -3.6372 0.0212582 1.49907 
-4.07122 -0.221372 1.57413 -4.47215 -0.523017 1.63079 -4.83627 -0.86754 1.67689 
-5.17164 -1.23998 1.72002 -5.48972 -1.62663 1.76694 -5.8002 -2.01848 1.82023 
-6.11179 -2.4085 1.88042 -6.43096 -2.79173 1.94436 -6.76293 -3.16428 2.00703 
-7.11025 -3.52411 2.05994 -7.47394 -3.87013 2.09317 -7.85139 -4.2028 2.09565 
-8.23788 -4.52315 2.05559 -8.62382 -4.83206 1.95939 -8.9965 -5.12995 1.79357 
-9.33497 -5.41448 1.5507 -9.61597 -5.68224 1.22821 -9.82452 -5.93041 0.840143 
-9.95107 -6.15689 0.407621 -9.99919 -6.36342 -0.0503214 -9.97853 -6.55354 -0.516522 
-9.89949 -6.73147 -0.980912 -9.77264 -6.90178 -1.43715 -9.60729 -7.06921 -1.88189 
-9.41194 -7.23861 -2.31337 -9.19359 -7.41492 -2.73074 -8.95836 -7.60302 -3.13358 
-8.71121 -7.80748 -3.52096 -8.45636 -8.03252 -3.89161 -8.19728 -8.28157 -4.2436 
-7.93688 -8.5575 -4.57435 -7.67726 -8.86267 -4.87877 -7.42004 -9.19895 -5.15025 
-7.16644 -9.56687 -5.38218 -6.91746 -9.96607 -5.56584 -6.67406 -10.3961 -5.66737 
-6.43868 -10.8525 -5.63814 -6.23245 -11.2804 -5.45018 -6.08711 -11.5964 -5.09465 
-6.00776 -11.7816 -4.62188 -5.98168 -11.8614 -4.1173 -5.99716 -11.8671 -3.61548 
-6.04388 -11.8326 -3.11668 -6.11745 -11.7789 -2.62174 -6.21755 -11.7184 -2.1322 
-6.34434 -11.6645 -1.64854 -6.49813 -11.6312 -1.17057 -6.67799 -11.6308 -0.700461 
-6.88193 -11.6739 -0.242257 -7.10589 -11.7657 0.199417 -7.34424 -11.9071 0.619629 
-7.59199 -12.0948 1.01571 -7.84471 -12.3221 1.38695 -8.09911 -12.5828 1.73403 
-8.35288 -12.8713 2.0588 -8.60394 -13.183 2.36344 -8.85039 -13.5145 2.65039 
-9.08989 -13.8632 2.92237 -9.31961 -14.2272 3.18237 -9.53622 -14.6053 3.43341 
-9.73581 -14.9966 3.67849 -9.91387 -15.4 3.92033 -10.0653 -15.8148 4.16127 
-10.1843 -16.2398 4.40288 -10.2651 -16.673 4.64586 -10.3011 -17.1117 4.89008 
-10.2856 -17.5517 5.13444 -10.2129 -17.9873 5.37687 -10.0786 -18.4108 5.61423 
-9.88132 -18.8142 5.84313 -9.62353 -19.1887 6.06004 -9.31085 -19.528 6.26259 
-8.95271 -19.8285 6.44999 -8.5586 -20.0897 6.62272 -8.13771 -20.3146 6.78284 
-7.69772 -20.507 6.93275 -7.24424 -20.6716 7.07518 -6.78168 -20.8132 7.21266 
-6.31288 -20.9356 7.34737 -5.84003 -21.0421 7.48117 -5.3644 -21.1347 7.61552 
-4.88685 -21.214 7.7515 -4.40777 -21.2792 7.88972 -3.92746 -21.3278 8.03048 
-3.44617 -21.3558 8.17369 -2.96461 -21.3586 8.31903 -2.48431 -21.3309 8.46583 
-2.00734 -21.2688 8.6135 -1.53662 -21.1712 8.76165 -1.07445 -21.0397 8.91038 
-0.621726 -20.8802 9.06083 -0.178234 -20.6999 9.21464 0.258138 -20.5077 9.3743 
0.689798 -20.3121 9.54237 1.11928 -20.1215 9.72137 1.5487 -19.9438 9.91366 
1.97915 -19.7869 10.1212 2.41087 -19.6588 10.3458 2.84231 -19.5677 10.5883 
3.27065 -19.5218 10.849 3.69051 -19.5293 11.1271 4.09489 -19.5977 11.4203 
4.47371 -19.7332 11.7239 4.81636 -19.9392 12.0318 5.11225 -20.2122 12.3355 
5.35359 -20.5454 12.6268 5.5406 -20.9252 12.9007 5.67675 -21.3377 13.1546 
5.77115 -21.7722 13.3915 5.83327 -22.2193 13.6149 5.87073 -22.6725 13.8277 
5.89174 -23.1274 14.0349 5.90756 -23.5853 14.2493 5.92597 -24.0437 14.4774 
5.94062 -24.4827 14.699 5.95657 -24.8965 14.9161 6.03191 -25.3434 15.2322 
6.18571 -25.8144 15.6662 6.27565 -26.0422 15.8971 
LINES 1 129
128 0 1 2 3 4 5 6 7 8 9 10 11 12 13 14 15 16 17 18 19 20 21 22 23 24 25 26 27 28 29 30 31 32 33 34 35 36 37 38 39 40 41 42 43 44 45 46 47 48 49 50 51 52 53 54 55 56 57 58 59 60 61 62 63 64 65 66 67 68 69 70 71 72 73 74 75 76 77 78 79 80 81 82 83 84 85 86 87 88 89 90 91 92 93 94 95 96 97 98 99 100 101 102 103 104 105 106 107 108 109 110 111 112 113 114 115 116 117 118 119 120 121 122 123 124 125 126 127 

CELL_DATA 1
FIELD FieldData 2
Length 1 1 double
58.020317034 
Tortuosity 1 1 double
0.86263423343 
POINT_DATA 128
SCALARS MaximumInscribedSphereRadius float
LOOKUP_TABLE default
1.24 1.24 1.24 1.24 1.24 1.23604 1.23197 1.16702 1.09883 
1.02187 0.94429 0.943738 0.949856 1.01548 1.08748 1.16151 1.23581 1.25581 
1.26749 1.29121 1.31705 1.35844 1.40296 1.48751 1.58103 1.51105 1.40118 
1.28642 1.17038 1.17557 1.21512 1.23035 1.23805 1.26083 1.28874 1.36057 
1.44876 1.53989 1.63221 1.71497 1.7935 1.8226 1.8281 1.77477 1.69124 
1.5703 1.4288 1.35803 1.32481 1.37394 1.46648 1.51568 1.54061 1.56854 
1.59828 1.67145 1.7729 1.82783 1.85032 1.84082 1.8075 1.73796 1.63962 
1.62167 1.67222 1.73273 1.80235 1.84262 1.85411 1.83959 1.79769 1.73243 
1.64075 1.61776 1.67786 1.7557 1.85648 1.95788 2.06016 2.13084 2.15516 
2.1475 2.08984 1.99044 1.82114 1.68537 1.61012 1.56427 1.57577 1.60858 
1.68645 1.75955 1.82168 1.86599 1.86567 1.86472 1.86202 1.88339 1.97659 
2.12543 2.45685 2.73774 2.83497 2.8769 2.69469 2.50989 2.3133 2.14232 
2.10255 2.10551 2.356 2.56011 2.46103 2.3678 2.31781 2.28109 2.35754 
2.41496 2.2765 2.14025 2.03289 1.93464 2.00126 2.06284 1.94942 1.82183 
1.53092 1.24 
TEXTURE_COORDINATES TCoords 2 float
0 0 0.00787402 0 0.015748 0 0.023622 0 0.0314961 
0 0.0393701 0 0.0472441 0 0.0551181 0 0.0629921 0 
0.0708661 0 0.0787402 0 0.0866142 0 0.0944882 0 0.102362 
0 0.110236 0 0.11811 0 0.125984 0 0.133858 0 
0.141732 0 0.149606 0 0.15748 0 0.165354 0 0.173228 
0 0.181102 0 0.188976 0 0.19685 0 0.204724 0 
0.212598 0 0.220472 0 0.228346 0 0.23622 0 0.244094 
0 0.251969 0 0.259843 0 0.267717 0 0.275591 0 
0.283465 0 0.291339 0 0.299213 0 0.307087 0 0.314961 
0 0.322835 0 0.330709 0 0.338583 0 0.346457 0 
0.354331 0 0.362205 0 0.370079 0 0.377953 0 0.385827 
0 0.393701 0 0.401575 0 0.409449 0 0.417323 0 
0.425197 0 0.433071 0 0.440945 0 0.448819 0 0.456693 
0 0.464567 0 0.472441 0 0.480315 0 0.488189 0 
0.496063 0 0.503937 0 0.511811 0 0.519685 0 0.527559 
0 0.535433 0 0.543307 0 0.551181 0 0.559055 0 
0.566929 0 0.574803 0 0.582677 0 0.590551 0 0.598425 
0 0.606299 0 0.614173 0 0.622047 0 0.629921 0 
0.637795 0 0.645669 0 0.653543 0 0.661417 0 0.669291 
0 0.677165 0 0.685039 0 0.692913 0 0.700787 0 
0.708661 0 0.716535 0 0.724409 0 0.732283 0 0.740157 
0 0.748031 0 0.755906 0 0.76378 0 0.771654 0 
0.779528 0 0.787402 0 0.795276 0 0.80315 0 0.811024 
0 0.818898 0 0.826772 0 0.834646 0 0.84252 0 
0.850394 0 0.858268 0 0.866142 0 0.874016 0 0.88189 
0 0.889764 0 0.897638 0 0.905512 0 0.913386 0 
0.92126 0 0.929134 0 0.937008 0 0.944882 0 0.952756 
0 0.96063 0 0.968504 0 0.976378 0 0.984252 0 
0.992126 0 1 0 
FIELD FieldData 7
Curvature 1 128 double
0 0.038140303108 0.071624437922 0.10336743604 0.13197492104 0.15552970634 0.17188235071 0.1792668809 0.17702914828 
0.16602629738 0.14847728283 0.12736635251 0.10593036916 0.087515517135 0.075802674708 0.074076637921 0.082885740032 0.099917867561 
0.12278152388 0.15008753763 0.18087769144 0.21381806832 0.24659263622 0.27570255802 0.29686154905 0.30629800515 0.30222805097 
0.28575361805 0.26031170331 0.23039449314 0.20006785728 0.1725824759 0.15029214827 0.13502150408 0.1280457722 0.12986111907 
0.14016677369 0.15846083347 0.18506192195 0.22159069253 0.27124371126 0.33851593621 0.42760145492 0.53750426794 0.65249869617 
0.73510442835 0.74224898107 0.66522040465 0.54007169392 0.41120632327 0.30292997239 0.22092299995 0.16344112787 0.1280337551 
0.11267383346 0.11283175735 0.12127532191 0.13168681139 0.14018282512 0.14485892094 0.14512618559 0.14143403934 0.13482311653 
0.12670298082 0.1185919476 0.11195121665 0.10815174699 0.10815889819 0.11250313026 0.12105115321 0.13323295167 0.14822773672 
0.16505361369 0.18260284422 0.19952454797 0.2143388364 0.22545994866 0.23151462085 0.23163101046 0.22574113904 0.21455553265 
0.1994263514 0.18202038852 0.16392949423 0.14657026421 0.13098635613 0.11782011313 0.10752122779 0.10016687755 0.095571316506 
0.093213237822 0.092489074896 0.092456704803 0.092155725154 0.090612630387 0.087004209542 0.080789652056 0.071824378997 0.060575226321 
0.048532866589 0.039436896414 0.040096276074 0.053135957618 0.07405128885 0.099231831577 0.12698584734 0.15631439114 0.18601845521 
0.21455316997 0.23958697935 0.25837779821 0.2680991054 0.26685026691 0.25440642339 0.23230372365 0.20331840982 0.17071873092 
0.13735497635 0.10542303112 0.076635979215 0.052388120954 0.034133684791 0.023304498876 0.019083532996 0.016874563002 0.012955267855 
0.00669728948 0 
Torsion 1 128 double
0 0 0.026060098578 0.033763960473 0.039850946938 0.043543482516 0.04405268127 0.04027883377 0.030317571764 
0.01069258295 -0.024811717273 -0.08695239378 -0.19180750618 -0.34894956166 -0.50687860879 -0.51745536474 -0.35339055146 -0.16518708708 
-0.031072066736 0.051221037239 0.09883321375 0.12531958427 0.13964794166 0.14745477758 0.15271226127 0.1581731881 0.16602031063 
0.17833709449 0.19748368048 0.22616711581 0.26718367525 0.32180909721 0.38507232766 0.43831009419 0.45166459462 0.40728520215 
0.32123569288 0.22506620246 0.13986225338 0.072955565178 0.024772966458 -0.0059740762995 -0.020950072167 -0.022265802147 -0.012721380955 
0.0050589945389 0.030187904096 0.064601172821 0.11209446305 0.1778453956 0.27049079362 0.40256767915 0.57934115874 0.75269710182 
0.78654131673 0.64271028158 0.45985757228 0.3246791063 0.2414466604 0.19510894192 0.17420551432 0.17263620653 0.18712477889 
0.21602167749 0.25581193976 0.29865814292 0.33152699958 0.33995629942 0.31857694133 0.27579262545 0.22546524598 0.17834406156 
0.13936140594 0.10925928829 0.086928915037 0.071189598155 0.060599266127 0.053982909868 0.050662929507 0.050110877534 0.05212896459 
0.056706039002 0.063916276812 0.073790012825 0.086214232756 0.10022841275 0.11412184616 0.12469647634 0.12888224214 0.12499407863 
0.11447506326 0.10138366567 0.090351587822 0.085192766946 0.089164504269 0.10562541132 0.14107067564 0.2097854505 0.34542688989 
0.62134573971 1.0628572116 1.1382434434 0.70443578844 0.38737376595 0.22671180536 0.14270547931 0.094496906622 0.064407239965 
0.044036152581 0.029209259041 0.017601666939 0.0075147023607 -0.0021317032401 -0.012168397917 -0.024085494772 -0.039653381424 -0.061195422563 
-0.093739032807 -0.14690139537 -0.23972065883 -0.41212419945 -0.71775072453 -1.0219045493 -0.87217928914 -0.51153765027 -0.27456992372 
0 0 
Abscissas 1 128 double
0 0.50278438513 1.0055687703 1.5083529844 2.0111371828 2.5139231413 3.0167091492 3.519493986 4.0222787604 
4.5250623332 5.027845822 5.5306308209 6.0334159505 6.5362007811 7.0389855796 7.5417676805 8.0445494317 8.5473329614 
9.0501167632 9.5529051231 10.055694289 10.558477504 11.061259522 11.564044365 12.066829841 12.56961149 13.072392205 
13.575179226 14.077967896 14.580753173 15.083537489 15.586321879 16.089106291 16.591893388 17.094681398 17.597466738 
18.100251085 18.603033188 19.105814379 19.608597072 20.111380429 20.614165968 21.11695255 21.619730668 22.12250444 
22.625301115 23.128110383 23.630900721 24.13368101 24.63646391 25.139248185 25.642033099 26.14481837 26.647601481 
27.150383287 27.65316677 28.155951344 28.658736981 29.161523361 29.664307535 30.167090069 30.669867237 31.172640139 
31.675422132 32.178211872 32.681003161 33.183795867 33.686576025 34.18934388 34.692113381 35.194884617 35.697662566 
36.200448099 36.703235454 37.206025014 37.708817438 38.211613566 38.714405499 39.217191648 39.719978082 40.222764933 
40.725548043 41.228325306 41.731104604 42.23388731 42.736673547 43.239466154 43.742254437 44.245034285 44.747816059 
45.250601908 45.753387762 46.25617363 46.758958622 47.261741424 47.764526731 48.267318882 48.770106217 49.27287918 
49.775654024 50.278435036 50.781217721 51.284006483 51.786793708 52.289574707 52.792356069 53.295139082 53.797922377 
54.300707119 54.803493132 55.306286505 55.809078898 56.311864884 56.814651918 57.31744669 57.820240539 58.323026523 
58.825811683 59.328588361 59.831365269 60.334145165 60.836924678 61.339697285 61.842470597 62.34526845 62.848065043 
63.350847095 63.853629147 
ParallelTransportNormals 3 128 double
0.50567983211 0 0.86272122229 0.46669934396 0.007081798509 0.88316849567 0.42771885581 0.014163597018 0.90361576905 
0.38334531849 0.016511769918 0.92225545279 0.33847628798 0.018425035003 0.94072906196 0.28940854538 0.010497767637 0.95570153746 
0.24022314369 0.0022947423501 0.97057590187 0.20694815627 -0.012616068938 0.97758370476 0.1745201705 -0.027883973741 0.98417272594 
0.16834284438 -0.032273487941 0.9851834412 0.16400145474 -0.035902181862 0.9858040171 0.17134117747 -0.0274619623 0.98474634093 
0.17969256773 -0.017976488875 0.98354331618 0.18659167168 -0.0095603988748 0.98233166558 0.19333504914 -0.0012589772615 0.98111909004 
0.18780286354 -0.0074928477656 0.98211777397 0.18067923697 -0.015611117332 0.98340313225 0.14999518944 -0.045889515508 0.9864485527 
0.11570778727 -0.079557106207 0.98976315884 0.050807497136 -0.13580112074 0.98510762253 -0.019508706015 -0.19603926834 0.97904203963 
-0.11949911794 -0.27833722225 0.94231930489 -0.22545250162 -0.36506804927 0.89943607797 -0.32927968182 -0.46012784503 0.80591315246 
-0.43263005082 -0.55705545149 0.70103403463 -0.49028165057 -0.63402632818 0.5787528509 -0.53678561353 -0.70612901306 0.45222665329 
-0.54705747601 -0.75280240905 0.35226411519 -0.54786135295 -0.79283075448 0.25924305552 -0.53844758105 -0.81704354635 0.19859419334 
-0.52613796097 -0.8367739526 0.14712013947 -0.51744240773 -0.84683748866 0.12128943768 -0.50986790047 -0.85390246208 0.10341303711 
-0.51105530566 -0.8531377767 0.10439741585 -0.51522349332 -0.84970945938 0.11179818836 -0.52846715799 -0.83804240632 0.13180002791 
-0.54509039988 -0.82330736646 0.15649432372 -0.56885271103 -0.79912311829 0.18796555422 -0.595515305 -0.77110008166 0.22218994855 
-0.62752230408 -0.73178248856 0.2580600983 -0.66188848093 -0.6874791457 0.29465673295 -0.70269677514 -0.62620563316 0.32728988536 
-0.74658016392 -0.55683154224 0.35803110038 -0.80267152888 -0.45574287299 0.36352902407 -0.86502949092 -0.33837447962 0.35606906401 
-0.91837560329 -0.23052474342 0.28924620359 -0.96676583862 -0.12790959236 0.18977796566 -0.98844045878 -0.078791376815 0.098278807338 
-0.99593374733 -0.058070702467 0.01100984023 -0.99556660314 -0.05209775701 -0.056567823163 -0.99105679309 -0.053897273341 -0.11376762385 
-0.98278439949 -0.0581099373 -0.16794439313 -0.97240361557 -0.063674825617 -0.22042718536 -0.95769875194 -0.067788818534 -0.27445157539 
-0.94037997051 -0.071025741283 -0.32940786543 -0.91963696071 -0.069329377432 -0.3829198719 -0.89666558288 -0.064422603228 -0.43549198915 
-0.87390176031 -0.054671438094 -0.48098747394 -0.85128266511 -0.041542300596 -0.52154845421 -0.83158951792 -0.027067666671 -0.5538148828 
-0.81407374941 -0.01159176573 -0.57990882303 -0.79991832627 0.0024713298035 -0.59975104638 -0.78843533972 0.015410840577 -0.61462136506 
-0.78040838603 0.02505209267 -0.62469885799 -0.77532637787 0.031882841351 -0.630692301 -0.77420184436 0.033067426012 -0.63205571521 
-0.77669398089 0.029092075565 -0.62918782333 -0.78286511323 0.017302751613 -0.62156701811 -0.79264395533 -0.0021491383977 -0.60928539437 
-0.80432695985 -0.030930181257 -0.59200679958 -0.81801465215 -0.069532885691 -0.56946743147 -0.8301167563 -0.11800021967 -0.54176110312 
-0.84042767863 -0.17761127034 -0.50821784588 -0.84419418378 -0.24659710525 -0.469607089 -0.84004097729 -0.3269278141 -0.42486390888 
-0.82412209675 -0.41269928142 -0.37686053984 -0.79298497015 -0.5055080677 -0.32464029745 -0.74941444733 -0.59545897072 -0.27329671768 
-0.68870498661 -0.6814703963 -0.22316158216 -0.62283420395 -0.75733386655 -0.17780686448 -0.5493959246 -0.8183184706 -0.13946116439 
-0.47929009701 -0.86898803649 -0.10639325286 -0.41439150732 -0.90353948221 -0.081572332673 -0.35588081003 -0.93165140886 -0.060374758903 
-0.30806999446 -0.94897697781 -0.045246382257 -0.26554250658 -0.96317919985 -0.032106031546 -0.23254940157 -0.97174497698 -0.022553306206 
-0.20187897384 -0.97909261198 -0.013719279463 -0.17573892341 -0.98406426322 -0.0062870728796 -0.14819659118 -0.98867464209 0.0015971778574 
-0.11768900941 -0.9925210784 0.010437316155 -0.082614467217 -0.99577512239 0.020718895248 -0.037045396584 -0.99766789378 0.034312795892 
0.013325664437 -0.99762507814 0.049489066374 0.07571558795 -0.99273769755 0.068625837392 0.13839450432 -0.9853542341 0.088036458504 
0.20186254334 -0.97115497768 0.10819485348 0.25979684174 -0.95680758009 0.12680836145 0.30121676917 -0.94201808406 0.14081145508 
0.33515578312 -0.92973465759 0.15236541118 0.34455304438 -0.92567259869 0.15588476996 0.34741844482 -0.92439668805 0.15671710777 
0.3265436605 -0.9332470916 0.14778341164 0.30020041599 -0.9435430757 0.13585316359 0.25169011834 -0.95969889231 0.11177603627 
0.19846862896 -0.97519113163 0.08423272757 0.12382557799 -0.98766611702 0.040928859332 0.045588959968 -0.99684800369 -0.0061462589621 
-0.051059863389 -0.98915718175 -0.072543969302 -0.14883502122 -0.97569575592 -0.14202818675 -0.25313276163 -0.92881686709 -0.22938631118 
-0.35449046294 -0.87652542689 -0.3169592217 -0.4366248111 -0.78884418992 -0.40593650436 -0.51379426207 -0.70064378444 -0.49185871281 
-0.55426438899 -0.60860581033 -0.55519854871 -0.59176368322 -0.519730969 -0.61536706074 -0.6039326519 -0.45782606881 -0.64849579154 
-0.6152002361 -0.3991400261 -0.67976355179 -0.61719291338 -0.37357481498 -0.69188262581 -0.61901552442 -0.3505465247 -0.70279429102 
-0.61862461979 -0.36053780296 -0.69799079587 -0.618109353 -0.3721743466 -0.69223921942 -0.61534593655 -0.41355307663 -0.66934876 
-0.61204238756 -0.45672405453 -0.6448548304 -0.58994060392 -0.56227064224 -0.56455532222 -0.56960203564 -0.65939703329 -0.49066187287 
-0.56960203564 -0.65939703329 -0.49066187287 -0.56960203564 -0.65939703329 -0.49066187287 
FrenetTangent 3 128 double
-0.91792513341 0.0071834941538 0.39668860189 -0.91792513341 0.0071834941538 0.39668860189 -0.92152808154 -0.017372851861 0.38792290336 
-0.92575154329 -0.056395619754 0.37390321498 -0.92856126797 -0.10856576631 0.35494710312 -0.92765886902 -0.17169333528 0.33161788454 
-0.92100231095 -0.24258772264 0.30480475725 -0.90739181803 -0.31720257799 0.27572198513 -0.88691452449 -0.39112508511 0.2457718333 
-0.86102433769 -0.46028447702 0.21627595826 -0.83218560915 -0.52159623576 0.18816077901 -0.80323651804 -0.57328699066 0.16171927042 
-0.77674362599 -0.61484243097 0.13652151684 -0.7545514684 -0.6467048699 0.11146700312 -0.73757385477 -0.66990396242 0.084932266502 
-0.72576623861 -0.68574257896 0.054958914722 -0.71819649428 -0.69556852585 0.019447916455 -0.71314597197 -0.70061673189 -0.023643554525 
-0.70821105432 -0.70188801218 -0.076094158052 -0.70040304331 -0.70004583678 -0.13918118886 -0.6862743124 -0.69533640133 -0.21338898081 
-0.66214491057 -0.6875525652 -0.29805299444 -0.62451659667 -0.67609995543 -0.39098321032 -0.57073132822 -0.66022591566 -0.48822893326 
-0.49981129755 -0.63941207181 -0.58424384401 -0.41315333772 -0.61384042436 -0.67268436354 -0.31462201364 -0.58469820061 -0.7477573154 
-0.20979376987 -0.5541118451 -0.8055722421 -0.10462207479 -0.5247147036 -0.84482465713 -0.0041639524694 -0.499083421 -0.86654394025 
0.088105895742 -0.47932011262 -0.87320649378 0.17034813766 -0.46688677798 -0.86775471681 0.2420401691 -0.4626459599 -0.85286298567 
0.30354226467 -0.46698486713 -0.83053430238 0.35572964293 -0.47993377336 -0.80194762568 0.39972546008 -0.50125817642 -0.76743716168 
0.43673289844 -0.53050199957 -0.72652047726 0.46789796322 -0.56699659082 -0.67792799176 0.49418827109 -0.60982673324 -0.61958801485 
0.51622748933 -0.65771871519 -0.54855744544 0.53403031317 -0.70877064378 -0.46092927779 0.54659035261 -0.75990394772 -0.35183089216 
0.55126380213 -0.8059098744 -0.21591084921 0.54313281242 -0.83820667735 -0.049156018167 0.51515778489 -0.84441565192 0.14688316263 
0.46077919398 -0.81155608544 0.35924817964 0.37939612782 -0.73469913507 0.56238399615 0.27987082753 -0.6245651108 0.72910269665 
0.17608752998 -0.50299599047 0.84616086848 0.078899477384 -0.39017978698 0.91735195334 -0.0070837199462 -0.29754342104 0.95468200649 
-0.081751644049 -0.22887915844 0.97001597901 -0.14685773615 -0.18389245342 0.97191376722 -0.20438816342 -0.16071910387 0.96560594877 
-0.25586391962 -0.15706559408 0.95386794358 -0.30214401921 -0.17050919066 0.93788891003 -0.34345287497 -0.19847579957 0.91795832131 
-0.3795187333 -0.23815475935 0.89400662284 -0.40978705127 -0.28649231514 0.86602351353 -0.43364942642 -0.34033530787 0.83433809285 
-0.45063481956 -0.39667759804 0.79973442005 -0.46051689576 -0.45293867858 0.76339422461 -0.46330525779 -0.50717204486 0.72672192414 
-0.45916619627 -0.55812682592 0.69113012551 -0.44829225971 -0.60518819698 0.65786115261 -0.43079899992 -0.64821686973 0.62787507633 
-0.40665636217 -0.6873640428 0.60179836804 -0.37565738913 -0.72288508619 0.57992989072 -0.33743959799 -0.75498265781 0.56225946333 
-0.29153240674 -0.78368335673 0.54849726728 -0.2374470111 -0.80873700396 0.53811093219 -0.17479022362 -0.82956491005 0.53034935443 
-0.1034148242 -0.84524466069 0.52427744345 -0.023591003341 -0.85455368033 0.51882701548 0.063808132537 -0.85609122701 0.51287067888 
0.15717037159 -0.848494499 0.50532619114 0.25411520655 -0.83072079852 0.4953063867 0.3516284692 -0.8023557799 0.48226820557 
0.446392823 -0.76384716785 0.46612332246 0.53525857761 -0.71655073157 0.44727318741 0.61570318532 -0.66255572937 0.42653193675 
0.68613665735 -0.60433418686 0.4049650331 0.74598219284 -0.5443262393 0.38369195089 0.7955325364 -0.48460212363 0.36371522556 
0.83569240494 -0.42665451696 0.34580938027 0.86769632265 -0.37133056603 0.33047950376 0.89285744805 -0.31890113214 0.31797428415 
0.91240629232 -0.26916428587 0.30832668541 0.92739349795 -0.22158367805 0.30140002254 0.93863507871 -0.1754595064 0.2969480605 
0.94670361458 -0.13009867871 0.29466353685 0.95195487009 -0.08494578562 0.29422124128 0.95457123464 -0.039717576842 0.29532401203 
0.95463237529 0.0054743099827 0.29773656139 0.95220824457 0.050084182344 0.30131550515 0.94745248439 0.093141320026 0.30603673689 
0.94067838485 0.13333343231 0.31200380143 0.93238950886 0.16913314225 0.31944292754 0.92325100962 0.19894816176 0.32867491868 
0.91399995441 0.22125668491 0.34007287855 0.90531632453 0.23468224994 0.3540149631 0.8976810715 0.23804689937 0.37081311678 
0.89125204334 0.23034616836 0.39065385954 0.88576282994 0.21072573244 0.41354428395 0.88045802985 0.17848943564 0.43924387195 
0.87407067773 0.13312777782 0.46720171778 0.86484055552 0.074440492777 0.49649715665 0.85060837632 0.0027559097937 0.52579253997 
0.82902470789 -0.080793735195 0.55334474432 0.79791039381 -0.17398725175 0.57711995259 0.75576750507 -0.27334853553 0.59505970827 
0.70233726119 -0.37429037516 0.60549903931 0.63898657953 -0.47165966263 0.60764571407 0.56867263459 -0.56064382105 0.60190525881 
0.49542789395 -0.63766104237 0.58986404954 0.42354425359 -0.70085374937 0.57394624073 0.35678510051 -0.75007003544 0.55686563369 
0.29790696375 -0.78642750557 0.54109446443 0.24853738007 -0.81171801276 0.52852912736 0.20926139071 -0.82793139165 0.52032612954 
0.17981308528 -0.83697012476 0.51686387436 0.15927761741 -0.84054035816 0.51780551069 0.1462604105 -0.84017616806 0.52221824838 
0.1390613839 -0.83731008775 0.52874733897 0.13586465546 -0.83331067965 0.53584895873 0.13495980402 -0.82944989013 0.54203203878 
0.13497134673 -0.82678140347 0.54609087746 0.13497134673 -0.82678140347 0.54609087746 
FrenetNormal 3 128 double
-0.15118593918 -0.93073284282 -0.33298526558 -0.15118593918 -0.93073284282 -0.33298526558 -0.12357030293 -0.93394615847 -0.33537285715 
-0.07993384658 -0.9372834382 -0.33927914266 -0.021862032014 -0.9386122396 -0.34428057633 0.048115846887 -0.93558872338 -0.34979795021 
0.12637952214 -0.9261846287 -0.35526081959 0.20829747986 -0.90920730874 -0.36049164985 0.2886417997 -0.88463579482 -0.36620407151 
0.36210552712 -0.85347108589 -0.37478886426 0.42358926533 -0.8169784042 -0.3913034901 0.46769040113 -0.77511778157 -0.42480361742 
0.48668620202 -0.72353614099 -0.48952220934 0.46670186563 -0.64823211359 -0.60165147346 0.38909990863 -0.52442365919 -0.75735136283 
0.26148155462 -0.34886994833 -0.89995397424 0.14605249766 -0.17801226078 -0.97312912963 0.091941430774 -0.060042942769 -0.99395252318 
0.098051242291 0.008952212415 -0.99514110144 0.14703152356 0.04930544628 -0.98790217332 0.22419220459 0.07687190763 -0.97150839689 
0.31897895494 0.1013079043 -0.94233175413 0.4235543041 0.12741125902 -0.89686572158 0.5312228571 0.15651876662 -0.83264887665 
0.63569448967 0.18734512624 -0.74886201631 0.73127175006 0.21659341687 -0.64678351814 0.81342215008 0.23994965968 -0.5298759917 
0.87962913688 0.25276337464 -0.40294324413 0.92947181923 0.25057121722 -0.27073271387 0.96382442613 0.22893964227 -0.1364885189 
0.98309521827 0.18309036074 -0.0013082902273 0.98491229152 0.10791778794 0.13528314401 0.96194446238 -0.00045619030943 0.27324465812 
0.90254987421 -0.138462118 0.407715546 0.7994977925 -0.28810838772 0.52706435728 0.66335134899 -0.41961532603 0.61958693172 
0.52066614764 -0.5095301159 0.68504439542 0.39402406319 -0.55278664711 0.73428329711 0.29124894373 -0.5553765631 0.77892934592 
0.20855713987 -0.52468114846 0.82535665737 0.13771640335 -0.46497389857 0.87454757783 0.069421422983 -0.37758091972 0.92337062715 
-0.004753975528 -0.26181307607 0.96510689196 -0.090898641273 -0.11689733896 0.98897545428 -0.19035420757 0.05437331848 0.98020855837 
-0.29730410069 0.24024958664 0.92406190693 -0.39972943524 0.41801953539 0.81576715222 -0.48671563572 0.56231083736 0.66851657581 
-0.55695369527 0.65786509373 0.50696755299 -0.61928308269 0.70193442663 0.35181887983 -0.68718408941 0.69501085359 0.21151345267 
-0.7723946906 0.6296343961 0.083468372321 -0.87445631689 0.4833964232 -0.040669987558 -0.95938589258 0.22881942025 -0.16498600555 
-0.95583530905 -0.10649998656 -0.27392811982 -0.84348178687 -0.41056665795 -0.34637190215 -0.68787294258 -0.6123076893 -0.38975647332 
-0.54071508088 -0.72699636359 -0.42320620108 -0.41322759869 -0.78808976195 -0.45624278491 -0.30070004167 -0.81819363223 -0.49003945262 
-0.19646769567 -0.82981794285 -0.52230510841 -0.094410406382 -0.83014486041 -0.54949630199 0.010889406412 -0.82324013287 -0.5675888516 
0.1240193313 -0.81064779025 -0.57224939111 0.2488771568 -0.79135806262 -0.55840180654 0.38516330904 -0.76126363164 -0.5216578462 
0.5269884491 -0.71457518227 -0.46007117209 0.66161327884 -0.64737361846 -0.37838507818 0.775337766 -0.56163349993 -0.28882375312 
0.86121087408 -0.464598777 -0.20606748111 0.92079680118 -0.36384904909 -0.14052444777 0.95980528045 -0.26369012247 -0.096131903813 
0.98366290178 -0.16500084384 -0.071986229201 0.99562441642 -0.067020372716 -0.065117517437 0.99691882847 0.031186031975 -0.071974167908 
0.98751994121 0.12980074386 -0.089197155773 0.96698813244 0.22825992096 -0.11327559406 0.9351349307 0.32491512524 -0.14125446106 
0.89248862981 0.4177624111 -0.17011353131 0.84046595298 0.50466917532 -0.19729674443 0.78121123386 0.58404339921 -0.22045932941 
0.71724949531 0.65498199666 -0.2378061091 0.65098744062 0.71751976767 -0.24775135753 0.58437218016 0.77226992525 -0.24921540402 
0.51859469522 0.82030148704 -0.24117423669 0.45410186466 0.8625692407 -0.22308249936 0.3907453993 0.89961654815 -0.19495665985 
0.32813419352 0.93132570607 -0.15798854467 0.26607764119 0.95705533554 -0.11509897294 0.20474247036 0.97628707736 -0.070314034213 
0.14466481551 0.98908198232 -0.028087780364 0.086183422912 0.99624058465 0.0087815208596 0.029228170456 0.99877809747 0.039850044684 
-0.026545602573 0.9974149245 0.066774241856 -0.081679105326 0.99229307495 0.093182493816 -0.13675491596 0.98277914869 0.12427082469 
-0.19252973821 0.96693231654 0.16725488075 -0.25047473575 0.93950460302 0.23365253616 -0.31290396718 0.88576807634 0.34279151427 
-0.3799565796 0.76070935931 0.5262644471 -0.4238692076 0.44591236748 0.78835084536 -0.35742812613 -0.098795119095 0.92870052175 
-0.22650972587 -0.52016697097 0.82348021615 -0.14573496855 -0.71966176316 0.67885805997 -0.11753594765 -0.8153450272 0.5669195601 
-0.12456340764 -0.86814905762 0.48041770494 -0.15614765507 -0.9000137401 0.40693141616 -0.20623990742 -0.91810136512 0.33845972279 
-0.27042396032 -0.92403750312 0.27023244534 -0.34468940952 -0.91715053724 0.20006024842 -0.42464807857 -0.89632216841 0.12759537526 
-0.50560936787 -0.86105790146 0.054207540491 -0.58307182966 -0.81223598193 -0.017319097154 -0.65334735021 -0.75243089608 -0.083576232255 
-0.71432775457 -0.68545327579 -0.14103072627 -0.76599154497 -0.61532044491 -0.18611207137 -0.80997771336 -0.54537644092 -0.21564007409 
-0.84932903632 -0.47711643273 -0.22583201207 -0.88800674082 -0.40888074021 -0.21038195871 -0.9294381453 -0.33377132299 -0.15729411309 
-0.97116790616 -0.23464806362 -0.042109194765 -0.98097178562 -0.075768241602 0.17875550167 -0.84277644397 0.17060030814 0.51051287972 
-0.50372486696 0.39988950077 0.76573470966 -0.19808093484 0.50709571075 0.83881933895 -0.024529327409 0.54407237341 0.83867965552 
0.054692017708 0.55651023935 0.82903868227 0.054692017708 0.55651023935 0.82903868227 
FrenetBinormal 3 128 double
0.36681911244 -0.36562928317 0.85542911222 0.36681911244 -0.36562928317 0.85542911222 0.36812548835 -0.35699125633 0.85851084311 
0.36958714841 -0.34397571214 0.8631836706 0.37053477999 -0.32744547343 0.86918550307 0.37031593 -0.30853709552 0.87616834723 
0.36848739409 -0.28867495626 0.88367630387 0.36503732474 -0.2696749789 0.89107977045 0.36065015973 -0.25385168567 0.89749138379 
0.35709477333 -0.24438761375 0.90153092964 0.35782572045 -0.24593424713 0.90082023727 0.36888586958 -0.26558322806 0.89072373057 
0.39975727666 -0.31379011737 0.86123741326 0.4613474289 -0.40195514445 0.79094286247 0.55189316889 -0.52555542696 0.64746075041 
0.63631027297 -0.63878546834 0.43250706578 0.68033996174 -0.69605751261 0.22943730212 0.69496013985 -0.71100706046 0.10723508753 
0.6991588206 -0.71223105538 0.062480935751 0.69843919421 -0.71239371093 0.06839512132 0.69192877057 -0.7145614031 0.10313378519 
0.67809773905 -0.71903280775 0.15223428548 0.65618653747 -0.72571014968 0.20679460026 0.62615335747 -0.73457716816 0.26139693369 