# vtk DataFile Version 4.2
vtk output
ASCII
DATASET POLYDATA
POINTS 128 float
0 0 0 -0.208108 0.212857 0.163846 -0.632556 0.574128 0.511151 
-1.02192 0.740809 0.858402 -1.36903 0.738096 1.18781 -1.7295 0.682256 1.52543 
-2.0977 0.581502 1.86105 -2.45551 0.42039 2.17761 -2.80434 0.210264 2.47203 
-3.1503 -0.0320339 2.74476 -3.49474 -0.300953 2.99362 -3.83772 -0.594314 3.21539 
-4.18021 -0.909452 3.40587 -4.52309 -1.2436 3.5604 -4.86537 -1.59434 3.67354 
-5.20462 -1.95996 3.73636 -5.53403 -2.34222 3.72084 -5.83885 -2.73821 3.59434 
-6.06545 -3.10891 3.33769 -6.15624 -3.40781 2.94712 -6.1179 -3.62526 2.48164 
-5.98146 -3.76839 2.01476 -5.77928 -3.86286 1.56453 -5.54152 -3.93879 1.12819 
-5.28115 -4.01005 0.704156 -5.00418 -4.08405 0.291264 -4.71616 -4.1678 -0.11196 
-4.42223 -4.26799 -0.50701 -4.12614 -4.38996 -0.894502 -3.83126 -4.53862 -1.27435 
-3.54321 -4.72033 -1.6441 -3.26842 -4.94205 -2.0003 -3.01179 -5.21004 -2.34072 
-2.7809 -5.53172 -2.66034 -2.61314 -5.92757 -2.9247 -2.55849 -6.41476 -3.08509 
-2.642 -6.92017 -3.10057 -2.8689 -7.33271 -2.94342 -3.19019 -7.624 -2.66038 
-3.53552 -7.8076 -2.32927 -3.88053 -7.90524 -1.97949 -4.22404 -7.94131 -1.61569 
-4.56209 -7.928 -1.24248 -4.88931 -7.87097 -0.86423 -5.20218 -7.7757 -0.482402 
-5.4981 -7.6475 -0.0967522 -5.77323 -7.49086 0.29392 -6.02289 -7.30998 0.691428 
-6.24101 -7.11056 1.09828 -6.42013 -6.89969 1.51776 -6.54595 -6.68942 1.95727 
-6.59978 -6.49684 2.42535 -6.56241 -6.36209 2.91163 -6.41744 -6.33788 3.39238 
-6.18848 -6.43972 3.83668 -5.92534 -6.65622 4.21114 -5.66012 -6.96313 4.5122 
-5.41152 -7.32862 4.75661 -5.1889 -7.73425 4.95433 -4.99504 -8.17148 5.11004 
-4.8319 -8.63282 5.22772 -4.70085 -9.11149 5.31093 -4.60213 -9.60192 5.36329 
-4.53497 -10.0996 5.38864 -4.49676 -10.6009 5.39262 -4.48328 -11.1033 5.38246 
-4.48845 -11.6056 5.36702 -4.50452 -12.1078 5.35657 -4.52209 -12.6101 5.36167 
-4.53027 -13.1119 5.39298 -4.51787 -13.6106 5.45794 -4.4736 -14.101 5.56065 
-4.38947 -14.5775 5.69976 -4.26095 -15.0338 5.86853 -4.08697 -15.466 6.05887 
-3.86997 -15.8722 6.26161 -3.6133 -16.2516 6.46942 -3.32115 -16.6045 6.67709 
-2.99756 -16.931 6.88099 -2.64642 -17.2315 7.07924 -2.2712 -17.5059 7.2709 
-1.87497 -17.7539 7.45611 -1.46045 -17.9747 7.63556 -1.03002 -18.1668 7.81063 
-0.586083 -18.328 7.98306 -0.131182 -18.4558 8.15512 0.331767 -18.5472 8.32903 
0.799305 -18.5989 8.50695 1.26752 -18.6086 8.69054 1.73192 -18.5756 8.88069 
2.18869 -18.5012 9.07759 2.63513 -18.3896 9.28034 3.07004 -18.2464 9.48784 
3.49446 -18.0789 9.69885 3.91034 -17.8945 9.91236 4.32081 -17.7005 10.1278 
4.72926 -17.5043 10.345 5.13926 -17.3133 10.564 5.55392 -17.1352 10.7853 
5.97541 -16.9777 11.0094 6.40482 -16.8487 11.237 6.84124 -16.7558 11.4689 
7.28237 -16.706 11.7056 7.72341 -16.7042 11.9476 8.15862 -16.7542 12.1954 
8.58082 -16.8571 12.4492 8.98245 -17.0129 12.7097 9.35542 -17.2198 12.9771 
9.69122 -17.4758 13.2515 9.98038 -17.7778 13.5323 10.2136 -18.1217 13.8174 
10.3821 -18.5008 14.1032 10.4797 -18.907 14.385 10.5053 -19.33 14.6576 
10.4613 -19.7597 14.9163 10.3573 -20.1883 15.1592 10.2043 -20.6103 15.3856 
10.0156 -21.025 15.5989 9.80376 -21.4332 15.8025 9.57846 -21.8362 15.9999 
9.35116 -22.2376 16.1962 9.14143 -22.647 16.4027 8.96587 -23.0686 16.6267 
8.82517 -23.485 16.857 8.73876 -23.8903 17.095 8.8078 -24.3391 17.4028 
9.05763 -24.817 17.7778 9.21476 -25.0489 17.9693 
LINES 1 129
128 0 1 2 3 4 5 6 7 8 9 10 11 12 13 14 15 16 17 18 19 20 21 22 23 24 25 26 27 28 29 30 31 32 33 34 35 36 37 38 39 40 41 42 43 44 45 46 47 48 49 50 51 52 53 54 55 56 57 58 59 60 61 62 63 64 65 66 67 68 69 70 71 72 73 74 75 76 77 78 79 80 81 82 83 84 85 86 87 88 89 90 91 92 93 94 95 96 97 98 99 100 101 102 103 104 105 106 107 108 109 110 111 112 113 114 115 116 117 118 119 120 121 122 123 124 125 126 127 

CELL_DATA 1
FIELD FieldData 2
Length 1 1 double
54.934330135 
Tortuosity 1 1 double
0.70734063907 
POINT_DATA 128
SCALARS MaximumInscribedSphereRadius float
LOOKUP_TABLE default
0.62 0.718493 0.816986 0.783056 0.738037 0.680661 0.622927 0.669974 0.722618 
0.909231 1.10573 1.10454 1.08452 1.01561 0.940955 0.987904 1.05192 1.18907 
1.33789 1.0995 0.799314 0.82473 0.903278 0.919927 0.924922 0.91301 0.897462 
0.951991 1.0236 1.12463 1.23371 1.09013 0.869778 0.760554 0.688327 0.818416 
1.02006 1.13931 1.23331 1.39609 1.58126 1.67595 1.7386 1.68212 1.57953 
1.47784 1.37653 1.3091 1.25729 1.2953 1.37831 1.57085 1.8224 1.88015 
1.82916 1.57666 1.20998 1.11876 1.19422 1.35053 1.5593 1.70968 1.81932 
1.85377 1.83178 1.76404 1.65931 1.59449 1.56453 1.50953 1.43096 1.35497 
1.2816 1.24263 1.24092 1.24675 1.26133 1.30996 1.40104 1.47814 1.53646 
1.56069 1.53554 1.48851 1.40727 1.39463 1.49789 1.61964 1.77521 1.84867 
1.75965 1.65397 1.5125 1.40225 1.36521 1.37324 1.49712 1.6397 1.83527 
2.00586 2.09827 2.1635 2.13447 2.09377 2.00813 1.93791 1.93391 1.92973 
1.92467 1.91574 1.88578 1.86177 1.87444 1.89634 1.98346 2.06701 2.12091 
2.17228 2.19781 2.22819 2.32238 2.4093 2.36122 2.31112 2.18799 2.06644 
1.96322 1.86 
TEXTURE_COORDINATES TCoords 2 float
0 0 0.00787402 0 0.015748 0 0.023622 0 0.0314961 
0 0.0393701 0 0.0472441 0 0.0551181 0 0.0629921 0 
0.0708661 0 0.0787402 0 0.0866142 0 0.0944882 0 0.102362 
0 0.110236 0 0.11811 0 0.125984 0 0.133858 0 
0.141732 0 0.149606 0 0.15748 0 0.165354 0 0.173228 
0 0.181102 0 0.188976 0 0.19685 0 0.204724 0 
0.212598 0 0.220472 0 0.228346 0 0.23622 0 0.244094 
0 0.251969 0 0.259843 0 0.267717 0 0.275591 0 
0.283465 0 0.291339 0 0.299213 0 0.307087 0 0.314961 
0 0.322835 0 0.330709 0 0.338583 0 0.346457 0 
0.354331 0 0.362205 0 0.370079 0 0.377953 0 0.385827 
0 0.393701 0 0.401575 0 0.409449 0 0.417323 0 
0.425197 0 0.433071 0 0.440945 0 0.448819 0 0.456693 
0 0.464567 0 0.472441 0 0.480315 0 0.488189 0 
0.496063 0 0.503937 0 0.511811 0 0.519685 0 0.527559 
0 0.535433 0 0.543307 0 0.551181 0 0.559055 0 
0.566929 0 0.574803 0 0.582677 0 0.590551 0 0.598425 
0 0.606299 0 0.614173 0 0.622047 0 0.629921 0 
0.637795 0 0.645669 0 0.653543 0 0.661417 0 0.669291 
0 0.677165 0 0.685039 0 0.692913 0 0.700787 0 
0.708661 0 0.716535 0 0.724409 0 0.732283 0 0.740157 
0 0.748031 0 0.755906 0 0.76378 0 0.771654 0 
0.779528 0 0.787402 0 0.795276 0 0.80315 0 0.811024 
0 0.818898 0 0.826772 0 0.834646 0 0.84252 0 
0.850394 0 0.858268 0 0.866142 0 0.874016 0 0.88189 
0 0.889764 0 0.897638 0 0.905512 0 0.913386 0 
0.92126 0 0.929134 0 0.937008 0 0.944882 0 0.952756 
0 0.96063 0 0.968504 0 0.976378 0 0.984252 0 
0.992126 0 1 0 
FIELD FieldData 7
Curvature 1 128 double
0 0.05321739305 0.097880494349 0.13678458767 0.1676739073 0.18934793158 0.20240416634 0.20936121061 0.2140460577 
0.22069570311 0.23329396546 0.25537875612 0.29015736968 0.34042704907 0.40733911348 0.48695142384 0.56484262987 0.61463020285 
0.61037245484 0.54842235717 0.45134934015 0.34795421243 0.25613569377 0.18172146535 0.12488114393 0.086722033053 0.074375355799 
0.091295317862 0.12778901091 0.17895645414 0.24847532913 0.34615709419 0.4872360998 0.68738808426 0.93995556987 1.1689350518 
1.2343481803 1.0874704091 0.84257785944 0.6189495068 0.45462195954 0.34239040974 0.26668686585 0.21569491695 0.18272515447 
0.16529402144 0.163506778 0.17800591725 0.20829302578 0.25254991617 0.30729484927 0.36606965312 0.41837365814 0.45158087844 
0.45670023666 0.43381648333 0.39147459845 0.34073283364 0.28986824907 0.242897674 0.20073843405 0.1627052116 0.12769422355 
0.094681982795 0.063010718681 0.032448230187 0.0075144843314 0.029165744403 0.057097943882 0.083694625708 0.10796168896 0.12902103776 
0.14612496975 0.15878637996 0.16697593182 0.17111118347 0.17193977675 0.17040047409 0.16740594213 0.16376612853 0.16010230864 
0.15682166705 0.15407819954 0.15182208949 0.14967444347 0.14714013536 0.14348501185 0.13799102503 0.13002729519 0.11920103257 
0.10546370676 0.089006460779 0.07034483983 0.050117804509 0.02984121264 0.016641350142 0.028260192163 0.050292469999 0.074110281896 
0.098378813429 0.12263017976 0.14652758842 0.1698836904 0.19244257947 0.21394688631 0.23404602999 0.25204064227 0.2669616271 
0.27735434667 0.2815629293 0.27791873432 0.26552699033 0.24434732917 0.21564405124 0.18130525782 0.14356953337 0.10444485574 
0.065471859838 0.027973825889 0.0067997585177 0.037138411676 0.060891782965 0.075564337259 0.079162642016 0.071046317348 0.052421110317 
0.026321826289 0 
Torsion 1 128 double
0 0 -0.038644139608 -0.055870475657 -0.076455717368 -0.10060655134 -0.12764269585 -0.15497710223 -0.17736304092 
-0.18786449423 -0.18086368867 -0.15567297735 -0.11743307544 -0.073902051683 -0.031974849619 0.004320483167 0.033762876664 0.057672465196 
0.079340750732 0.10280814531 0.13251338152 0.17517200845 0.24465274275 0.37307681952 0.63568874 1.1314325822 1.418634969 
0.93511263325 0.51104858427 0.30109571876 0.19457369664 0.13352657603 0.093255886176 0.062567664601 0.036743959992 0.014204453892 
-0.0071601383314 -0.031771993644 -0.063523641446 -0.10355075659 -0.15278441213 -0.21447268759 -0.29374013099 -0.3952597313 -0.51507031125 
-0.62484445794 -0.67207444686 -0.63124800833 -0.54018588976 -0.44806745736 -0.37635014935 -0.32651303842 -0.29400090444 -0.27402069658 
-0.26242543294 -0.25530213347 -0.24888490289 -0.2402909677 -0.22821898792 -0.21331336505 -0.19760929769 -0.18430313969 -0.1777285696 
-0.18648993749 -0.24096795492 -0.55735693299 -8.1739284193 -0.61630650538 -0.22786110814 -0.1559116529 -0.13185067854 -0.12117819216 
-0.11481936321 -0.10903304295 -0.10147932033 -0.09067849325 -0.07568984132 -0.056069270186 -0.032337621498 -0.0057465442991 0.021573702617 
0.047010163938 0.068192767328 0.083120246115 0.091368570631 0.093446830897 0.091106650325 0.086494444034 0.08169379121 0.07960624566 
0.083726012748 0.10102739355 0.14983504024 0.29388242552 0.86062084078 2.875215189 0.99267441044 0.28461343289 0.098983532192 
0.023442454637 -0.017164822337 -0.043194107376 -0.061640039032 -0.074882832755 -0.083793188888 -0.088633288289 -0.089398289083 -0.086602701717 
-0.080797298501 -0.072630398624 -0.06344853087 -0.054020231247 -0.044743150542 -0.036381609619 -0.029420383098 -0.02326646275 -0.01797893942 
-0.01438513466 -0.01306716389 0.012049317012 -0.0048985211034 -0.0038447224333 -0.0028075880147 -0.0017676907124 -0.0011598097447 -0.0014178790303 
0 0 
Abscissas 1 128 double
0 0.50250783647 1.0050156729 1.5075220494 2.0100283036 2.5125381726 3.0150481464 3.5175561244 4.0200639959 
4.5225706387 5.0250771909 5.5275876691 6.030098521 6.5326058201 7.0351127017 7.537621271 8.0401300771 8.5426388343 
9.0451475837 9.547653957 10.050159951 10.55266575 11.055171518 11.55768127 12.060191772 12.562699995 13.065207726 
13.56771613 14.070224698 14.572733726 15.07524288 15.577748971 16.080254131 16.582764528 17.08527667 17.587785985 
18.090294302 18.59279809 19.095300489 19.597808156 20.100317539 20.602828612 21.105340285 21.60784937 22.110357453 
22.612863412 23.115368473 23.617876997 24.120387117 24.622895283 25.12540247 25.627910352 26.130418609 26.632925717 
27.135432181 27.637940336 28.140449449 28.642958649 29.145467902 29.647976857 30.15048562 30.652994255 31.1555028 
31.658005548 32.160503945 32.663012194 33.165528414 33.66803434 34.170531275 34.673034823 35.1755446 35.678048186 
36.18054551 36.68305746 37.185585253 37.688111192 38.190634979 38.693143477 39.195632912 39.698135517 40.200655803 
40.703167512 41.205666806 41.708171101 42.210683216 42.713192541 43.215697152 43.718203162 44.220711731 44.72321867 
45.225722386 45.728227517 46.230735693 46.733249624 47.235777046 47.738292402 48.240776748 48.743268991 49.2457836 
49.748298203 50.250812787 50.753325731 51.255832985 51.758340471 52.26084885 52.763356273 53.26585959 53.768361966 
54.270859807 54.773363697 55.275900492 55.778430346 56.28091743 56.783405616 57.285901594 57.788400284 58.290921535 
58.793442782 59.295964002 59.798483491 60.300980194 60.803477592 61.305987898 61.808498356 62.311014281 62.813529839 
63.316041137 63.818552434 
ParallelTransportNormals 3 128 double
0.62953253187 0 0.77697412525 0.65153588594 -0.011519281835 0.75783180935 0.67353924001 -0.02303856367 0.73868949346 
0.67790241941 -0.023899304855 0.73475336162 0.68078845724 -0.023867528042 0.73209055541 0.67183453885 -0.027249983102 0.7400842897 
0.6625369819 -0.03073153158 0.74838731552 0.64464037467 -0.042046855913 0.76286747681 0.62628448359 -0.053780590017 0.77767756505 
0.60017422476 -0.074963202099 0.79538734627 0.57349150654 -0.096843369301 0.81331119479 0.53627699821 -0.13188039566 0.8317845143 
0.49806014979 -0.16816959733 0.8503101285 0.44067915847 -0.22890375862 0.86348540757 0.38104624762 -0.29251037199 0.8760319852 
0.28527887808 -0.41410313846 0.8479763721 0.18444052789 -0.54383347418 0.81422279284 0.11465747228 -0.69486047352 0.67195049079 
0.049830296565 -0.84928604656 0.51236050539 0.059111147338 -0.90895507413 0.39473650429 0.080218243302 -0.9535027418 0.28380948384 
0.091914840199 -0.9634969063 0.25034312197 0.10207584173 -0.96785266638 0.22951670913 0.096636519129 -0.9665250334 0.23716630671 
0.088260041684 -0.96412735819 0.25017723214 0.068636162009 -0.95755523682 0.27738519387 0.04659219913 -0.9500849074 0.30764790623 
0.014777350716 -0.93506672011 0.3493916934 -0.01941842126 -0.91820930621 0.39393313504 -0.064583295423 -0.88513840306 0.45271120405 
-0.11274663582 -0.84763545075 0.51538093582 -0.17488262966 -0.76585539405 0.60138067919 -0.24126506816 -0.67061903324 0.69447067236 
-0.29080063042 -0.42869912024 0.79917409355 -0.33472760037 -0.13794592621 0.90774380912 -0.23664945936 0.19991066274 0.87336670982 
-0.088348651008 0.55442621641 0.78843389263 0.051950746575 0.71068273058 0.67071097959 0.18979775161 0.80617383654 0.54293806549 
0.2830428043 0.83987330852 0.4494129453 0.3617597678 0.8534455367 0.36704327858 0.42320634773 0.85146090571 0.29858566869 
0.47853724757 0.84396737717 0.23505450924 0.52527515474 0.82935931325 0.17675905607 0.568687042 0.81199748388 0.12049014523 
0.60602221453 0.78996824725 0.06507939464 0.64078795509 0.76596547955 0.010031502025 0.66839403427 0.73947383782 -0.046663450851 
0.69269970129 0.71183489181 -0.1041176544 0.70491424552 0.68932133668 -0.15829549998 0.71107070111 0.66937578726 -0.21083177203 
0.71411078619 0.66259910048 -0.22579149364 0.7154717406 0.66291792474 -0.22050460507 0.73972246345 0.64430818908 -0.18082849306 
0.77681540383 0.61507865686 -0.12185843802 0.81676006072 0.56690535034 -0.072573058417 0.85832038715 0.50799925229 -0.028774631997 
0.8931838964 0.44367647559 0.0036800896085 0.92399495143 0.37607589666 0.029270379473 0.94798617205 0.30742799431 0.047189764177 
0.96755182484 0.23810045656 0.060131299133 0.98096536654 0.17209814649 0.067768237244 0.99008776042 0.10841520993 0.071705175665 
0.99493777726 0.055593078384 0.073187816186 0.99658048255 0.010924250003 0.072827993387 0.99719452902 -0.015175562891 0.072617570559 
0.99697629055 -0.026251238284 0.072528026822 0.99692039221 -0.013510871797 0.0712109205 0.99700625352 0.020026283713 0.068821874509 
0.99315395227 0.074623675868 0.05963554934 0.98559230629 0.14905764827 0.044046885199 0.96917087978 0.23047484783 0.020283908366 
0.94378753254 0.31895578086 -0.011747618906 0.9108155667 0.40194918045 -0.046536895493 0.86962475327 0.47899931113 -0.084312950369 
0.82480990607 0.54776090532 -0.1205899771 0.7757885468 0.60690177541 -0.15512704212 0.72563308442 0.6592528016 -0.18719779975 
0.67406372247 0.70313885023 -0.21619378321 0.62190789609 0.74226279139 -0.24337020133 0.56896465591 0.77499291074 -0.26810358839 
0.51487190406 0.80426842201 -0.29203700728 0.45911518197 0.82854323142 -0.31481243598 0.40157123187 0.8496378229 -0.33769904373 
0.34123326493 0.86576070262 -0.36075946041 0.27947468557 0.87816327363 -0.38445448142 0.21531550755 0.88427914182 -0.40922187816 
0.15240297393 0.88642965721 -0.43412503699 0.091769262013 0.88133164856 -0.45927636409 0.035996546281 0.87396466095 -0.48306943985 
-0.010156422229 0.86210744063 -0.50417458209 -0.049783254801 0.85081626514 -0.52262460272 -0.075389151789 0.8407411964 -0.53537028476 
-0.09472437335 0.83303805324 -0.5450306866 -0.099360099114 0.8308950942 -0.54745868362 -0.097837811873 0.83151582103 -0.5466186826 
-0.080491240123 0.83923840871 -0.53738088661 -0.056803434529 0.8486873886 -0.52477437536 -0.01515668361 0.86302566671 -0.50262735912 
0.032479941906 0.87675113317 -0.47723557102 0.098865044834 0.88855848179 -0.44168755491 0.16932679924 0.89707140609 -0.40350367693 
0.25392659562 0.89415909342 -0.35617849116 0.3398504802 0.88642153829 -0.30693588406 0.43087386435 0.86010038588 -0.25030865615 
0.52115559152 0.8285086382 -0.19192326568 0.6082521825 0.7742816777 -0.12598723211 0.69288781907 0.71457037223 -0.058129457373 
0.76566383047 0.62842937129 0.018989411258 0.83358786595 0.53804544065 0.09705598086 0.87511991364 0.42458238714 0.18027750441 
0.91093175443 0.31074922042 0.26210798948 0.91149758209 0.19463553916 0.33536735788 0.90902208033 0.082157147762 0.40555454592 
0.88506137873 -0.0046400633551 0.45403859047 0.8614601601 -0.086866743317 0.499747528 0.84084889735 -0.1310785869 0.52237485072 
0.82200133108 -0.17148529319 0.54305243272 0.82114955931 -0.17306645904 0.54383592642 0.82209048965 -0.17076864828 0.54260914893 
0.84665030985 -0.11736523474 0.51489700397 0.87126043398 -0.060477849225 0.48495085631 0.89680364063 0.061033376615 0.41356642062 
0.92047990017 0.18427169169 0.34056625142 0.87679808824 0.36982210941 0.20927161182 0.83657628327 0.54067520329 0.088376732355 
0.83657628327 0.54067520329 0.088376732355 0.83657628327 0.54067520329 0.088376732355 
FrenetTangent 3 128 double
-0.75370928771 0.11785672831 0.64655402033 -0.75370928771 0.11785672831 0.64655402033 -0.7585203334 0.083644566759 0.64625884154 
-0.76472498691 0.030704884053 0.64362481656 -0.77059103743 -0.037446541835 0.63622889712 -0.77456873557 -0.11621458593 0.62172135551 
-0.77572981794 -0.20056008178 0.59834680842 -0.77389411158 -0.28587315026 0.56512339008 -0.76939390799 -0.36869792453 0.52162712237 
-0.76261516069 -0.44701224309 0.46754483337 -0.7535132391 -0.52003326013 0.40222283234 -0.74120434759 -0.58770692205 0.3243712208 
-0.72362103077 -0.65003810547 0.23199798546 -0.69720103906 -0.70630380799 0.12266067807 -0.65668813147 -0.75414059617 -0.0057148216602 
-0.59546310356 -0.78867101754 -0.15304155775 -0.50728746075 -0.80246457221 -0.31418154389 -0.39017231801 -0.78787932403 -0.47645748291 
-0.25065791182 -0.74229344918 -0.62142662201 -0.10350704904 -0.67240178708 -0.7329134516 0.035105049516 -0.59204964539 -0.80513654301 
0.15465727797 -0.51526028587 -0.84296379766 0.2517675054 -0.45140284197 -0.85606576703 0.32759037462 -0.40487312465 -0.85367575776 
0.3849208519 -0.37688633374 -0.8424919164 0.42650744232 -0.36718057295 -0.82660137218 0.45436938402 -0.37502982834 -0.80802295185 
0.46959782091 -0.39971354019 -0.78721469269 0.47229618418 -0.44069573128 -0.76336333868 0.46148690251 -0.4976424304 -0.73442620479 
0.43487905656 -0.57026560663 -0.69690554888 0.38846396605 -0.65779012293 -0.64529675442 0.31606339161 -0.75748967747 -0.57123840996 
0.20957668176 -0.86124602352 -0.46296101502 0.062318042931 -0.94948302495 -0.30756860513 -0.1208841317 -0.98746523419 -0.1014861467 
-0.31182226894 -0.94084842808 0.13255605599 -0.46935889338 -0.81110838148 0.34900633618 -0.57155284467 -0.63887851918 0.51493842689 
-0.62367058553 -0.46534842213 0.62808108295 -0.64069750135 -0.31089481808 0.7020335632 -0.63501017159 -0.18055197961 0.75110789147 
-0.61419235315 -0.073274405396 0.7857471698 -0.58231952405 0.013217868029 0.81285254498 -0.54135108674 0.080716296089 0.8369133052 
-0.49202117786 0.13008228348 0.86080994422 -0.43435363672 0.16121085154 0.88619861183 -0.36798848867 0.17308422394 0.91357885463 
-0.29248277406 0.16389104874 0.94212183449 -0.20773097389 0.13129228077 0.96933491606 -0.11460851745 0.073053602686 0.99072097932 
-0.015845842039 -0.011736141421 0.99980556724 0.083217861448 -0.12094107734 0.9891653266 0.1747887693 -0.24795762566 0.95287244792 
0.25040119089 -0.38210588224 0.88954726595 0.30378958462 -0.51150427155 0.80378807435 0.33292484103 -0.62679304621 0.70447961464 
0.33987796189 -0.72313367363 0.60129914442 0.32915645072 -0.79977433764 0.50201298768 0.30598880518 -0.8584354714 0.4116544577 
0.27530999811 -0.90185256208 0.33296600609 0.2413954711 -0.93292027809 0.26718529386 0.20782381466 -0.95431633362 0.21468487942 
0.17755134862 -0.9683632247 0.17535160009 0.1529881754 -0.97696607426 0.14876796677 0.13605471569 -0.98155827104 0.13428505088 
0.12822895532 -0.98304999142 0.1310345351 0.13056019901 -0.98180197155 0.13790911173 0.14365676685 -0.97764534283 0.15353278798 
0.16764428754 -0.96996737042 0.17623476722 0.20210183942 -0.95787064437 0.20405556878 0.24601785111 -0.94039257949 0.23481271978 
0.2978105033 -0.91674392193 0.26625079479 0.35543737505 -0.88651040219 0.29624918434 0.4166015351 -0.84975392275 0.32305019999 
0.47900874739 -0.80697895141 0.34544983993 0.54059755139 -0.75899422322 0.36288022342 0.59969573001 -0.70672105347 0.37538031913 
0.65507121794 -0.65101821183 0.38348010026 0.705897792 -0.59256990895 0.38803248608 0.7516685963 -0.5318451068 0.39004500216 
0.7920882559 -0.46912981523 0.39052965487 0.82697392195 -0.40461213737 0.39038846128 0.85618895707 -0.33848721879 0.39034199428 
0.87961586974 -0.27108249322 0.39088387479 0.89717645302 -0.20295575288 0.39227971465 0.90889321513 -0.13496113633 0.39458663836 
0.91496920183 -0.068276400208 0.3977055354 0.91587132417 -0.0043495374979 0.40144837661 0.91237985477 0.055205557889 0.40560491489 
0.90556920214 0.10876495126 0.41001781121 0.89672408806 0.15483331554 0.4146233885 0.8871999746 0.19215082669 0.4194690273 
0.87826323021 0.21972408556 0.42470580958 0.87093895181 0.23682447107 0.43055721121 0.865882689 0.24295527026 0.43728698305 
0.86330532217 0.23777792659 0.44515792518 0.86292951188 0.2210843121 0.45439452514 0.86397688243 0.19280389978 0.46515653587 
0.86519804737 0.15302336012 0.47751040835 0.86492595405 0.10203666506 0.49141796161 0.86116540885 0.040435089389 0.50671406349 
0.85171812471 -0.030836422883 0.52309210572 0.83432785845 -0.1104290228 0.5400948579 0.80685555369 -0.19655124327 0.55709220445 
0.76746506932 -0.28697734893 0.57327250812 0.71484073972 -0.37904720941 0.58764439065 0.64843981995 -0.46972143832 0.59907225799 
0.56875842586 -0.55570516444 0.60638735411 0.47757486191 -0.63369196229 0.60856942759 0.37806569911 -0.70075578586 0.60498566573 
0.27462462903 -0.75483698326 0.59565295418 0.17237548577 -0.7951688654 0.58137179791 0.076456365678 -0.82246069359 0.56366020939 
-0.008694045587 -0.83870169967 0.54452169153 -0.079782652817 -0.84667300799 0.5260984184 -0.13478839322 -0.84936334698 0.51030774427 
-0.17280837041 -0.84942605822 0.49861070861 -0.19383729898 -0.84881032214 0.49188224054 -0.19860792374 -0.84860646465 0.49032842134 
-0.18860922036 -0.84905913982 0.49348266341 -0.16625703086 -0.84975526802 0.50027450881 -0.13506808042 -0.84998493643 0.50919762518 
-0.099632705666 -0.84919439332 0.51859638094 -0.065186748656 -0.8473570223 0.52700736671 -0.036854428133 -0.84506005397 0.53339971533 
-0.018779906504 -0.84322852416 0.5372271132 -0.018779906504 -0.84322852416 0.5372271132 
FrenetNormal 3 128 double
-0.14715412626 -0.98907486632 0.0087505389074 -0.14715412626 -0.98907486632 0.0087505389074 -0.12898259713 -0.99137834744 -0.023075135309 
-0.10137303615 -0.99215813142 -0.073114634711 -0.067253923242 -0.98792099777 -0.13960305144 -0.030464288098 -0.97497877207 -0.22020063841 
0.004911623995 -0.95004384114 -0.31207783623 0.035641895802 -0.91057134059 -0.41181244392 0.060558471682 -0.8550295039 -0.5150312796 
0.08158926474 -0.78350038931 -0.61601163287 0.1037270628 -0.69818515282 -0.70836303463 0.133856493 -0.60290825656 -0.78650115922 
0.17848617104 -0.50094022097 -0.84687754827 0.24178446237 -0.39275978029 -0.88728801905 0.32451524192 -0.27572382151 -0.90480176393 
0.42327907171 -0.1460756112 -0.89414581768 0.52985796454 -0.002914497654 -0.84808138944 0.63134347873 0.14773231441 -0.76130189488 
0.71395409578 0.29177441605 -0.63650391928 0.77003255538 0.4122309282 -0.48694509495 0.8023237096 0.49703335896 -0.33050643729 
0.8212512147 0.54135410081 -0.18022813289 0.83926145722 0.54231761966 -0.039138291228 0.86645253773 0.48902678615 0.10056242983 
0.90253970938 0.34461250077 0.25819430145 0.89205063392 0.019752501963 0.45150360484 0.64107537331 -0.49214422249 0.58891122421 
0.22043303552 -0.81032293456 0.54294200296 -0.06959082625 -0.88198107365 0.46611854998 -0.24434047643 -0.86713168728 0.43402807339 
-0.36472435374 -0.81914305459 0.44269718986 -0.46016935289 -0.74520393243 0.48261295646 -0.54184339611 -0.63836908817 0.54670891831 
-0.60973146919 -0.48525504173 0.62670174721 -0.65291712893 -0.27186049543 0.70695904675 -0.65041249159 0.0015572627021 0.75957959802 
-0.58440047281 0.29991778316 0.75400624051 -0.4628155484 0.56258281501 0.68505645345 -0.31586938888 0.75048291794 0.58051866382 
-0.16812687669 0.86454452461 0.47359911138 -0.026997169075 0.92290887884 0.3840707672 0.11142609051 0.94072790815 0.32033611906 
0.25518303031 0.92374654522 0.28561152153 0.41181497494 0.86688541104 0.28092367386 0.58198353215 0.75436285264 0.3036969787 
0.74898428571 0.56727293651 0.34237984063 0.87508166243 0.30868967581 0.37275027583 0.92884789392 0.023273202223 0.36972956065 
0.91641059691 -0.23344172943 0.32511009956 0.86548329698 -0.4371155431 0.24468074022 0.79631231666 -0.58949374785 0.13558693001 
0.71552553682 -0.69857952018 0.0031400871247 0.62218032787 -0.76906838217 -0.14637439376 0.51381518019 -0.80257440118 -0.30309782443 
0.39048008692 -0.80090938234 -0.45394874491 0.25589349031 -0.76885423032 -0.5859877935 0.11632370303 -0.71409293611 -0.69031882106 
-0.021570317084 -0.6451862676 -0.76372076149 -0.15219563968 -0.56962136886 -0.80769300071 -0.27166229228 -0.49314617654 -0.82644204123 
-0.37800421786 -0.42000461005 -0.82505087044 -0.47113001621 -0.35336836347 -0.80818766851 -0.55301386547 -0.29566459297 -0.77894679732 
-0.62770326855 -0.24866773875 -0.73766724366 -0.70421046984 -0.21339149619 -0.67716444349 -0.8123275607 -0.18811936504 -0.55202811398 
-0.81374841461 -0.028767528336 0.58050490699 0.53829523613 0.18700933312 0.82174554948 0.67224935559 0.21025710098 0.70983995055 
0.72953482829 0.24229658433 0.63958681939 0.76503546219 0.28449188125 0.57774138772 0.78821971053 0.3350914998 0.5161621593 
0.80125633757 0.39166035418 0.45231675678 0.80455892198 0.45150029525 0.38578805638 0.79808332263 0.51202518646 0.31763692886 
0.78188423026 0.57111718981 0.24996440942 0.75631841329 0.62736370938 0.18546491278 0.72196700897 0.68015100651 0.1271150908 
0.67951056359 0.72953509189 0.07774280457 0.62964021462 0.77588503511 0.039441252736 0.57287501387 0.81953212846 0.013465099724 
0.50972798876 0.86033554387 -0.00035976492512 0.44074287998 0.89762729533 -0.0033094459242 0.36677674078 0.93030634386 0.0022201346601 
0.28913775627 0.95719685925 0.013173099432 0.20942120535 0.97745957726 0.026749459188 0.12955220812 0.99074697817 0.040455538732 
0.051301735754 0.99726623823 0.053180654272 -0.023569969855 0.99763401727 0.064581917824 -0.093723184028 0.9927155645 0.075708472313 
-0.1584516756 0.98333750147 0.089109060714 -0.21801114079 0.96980106762 0.10934821324 -0.27488995432 0.95031262148 0.14608707836 
-0.33700475569 0.91452471639 0.22376849141 -0.42695051029 0.7984699669 0.4244513797 -0.46456308341 0.066304327859 0.88305428918 
-0.098679846169 -0.78550119916 0.61094202186 0.021746734254 -0.91462811009 0.40371091116 0.039292410507 -0.94678658729 0.31945463623 
0.017431984963 -0.96090013253 0.27634590862 -0.027776917122 -0.96788403115 0.24985784981 -0.089899780016 -0.96900315354 0.23011066466 
-0.16541480714 -0.96304464362 0.2125628283 -0.25133197805 -0.94818063327 0.1943855023 -0.34460288069 -0.92255589587 0.17360723954 
-0.44188538585 -0.88465866773 0.14871565949 -0.53953915597 -0.8335577592 0.11865479866 -0.63363351639 -0.76919649272 0.082736464097 
-0.72040533774 -0.6923260868 0.041240015631 -0.79625115324 -0.60494503785 -0.0050598558216 -0.85839683159 -0.51009215517 -0.054413902131 
-0.90530951797 -0.41172984564 -0.10437054603 -0.93693849314 -0.31452267328 -0.15238683692 -0.95481485499 -0.22322830956 -0.1962083446 
-0.96191267387 -0.14177019905 -0.23372038529 -0.96178777499 -0.073290526552 -0.2638044249 -0.95797332237 -0.019907708702 -0.28616568063 
-0.9535916176 0.017553940433 -0.30059089478 -0.95098232182 0.03942559463 -0.30672177307 0.95133460175 -0.046646072683 0.30460896148 
0.9538632369 -0.038853973321 0.29771680177 0.95861946774 -0.020381456296 0.28396005407 0.96389150116 0.0063151849835 0.26622038321 
0.96848469237 0.036808288986 0.2463382847 0.97152972183 0.06665761688 0.22734722721 0.97317538454 0.09094632037 0.21132543088 
0.97386792057 0.10621007911 0.20075032348 0.97386792057 0.10621007911 0.20075032348 
FrenetBinormal 3 128 double
0.64052164112 -0.088547729496 0.76281801687 0.64052164112 -0.088547729496 0.76281801687 0.63875691265 -0.10085910313 0.76276932808 
0.63633261895 -0.12115878987 0.76184076138 0.63377153836 -0.15036574965 0.75876463972 0.63175564978 -0.18950082856 0.75164768006 
0.63104605656 -0.23914922854 0.73796241163 0.63231128356 -0.29855715644 0.71487485969 0.63589754352 -0.36467298763 0.68018227428 
0.64168630074 -0.4316331712 0.63398067554 0.64919834792 -0.49203953169 0.58003327863 0.65779826268 -0.53953888456 0.52554660846 
0.66671979914 -0.5714099723 0.47851369153 0.67487108761 -0.58896068273 0.44460581341 0.6807720292 -0.59602712644 0.42579467916 
0.68283125277 -0.59721013212 0.42081057298 0.679639588 -0.59669264789 0.42667073296 0.67020218899 -0.59784724976 0.43978141369 
0.65378907942 -0.60321482528 0.45682788246 0.62955234449 -0.61476946783 0.47510245944 0.59585593939 -0.63437769308 0.49246384843 
0.54920630798 -0.66441145033 0.50688248731 0.48192668494 -0.70860925317 0.51538296118 0.37675528705 -0.77261281077 0.51100381438 
0.19302334253 -0.85976677986 0.4728034195 -0.14945590709 -0.92993992576 0.33596825195 -0.61852310272 -0.78558684569 0.016807119983 