# vtk DataFile Version 4.2
vtk output
ASCII
DATASET POLYDATA
POINTS 128 float
0 0 0 -0.332989 0.0495982 0.0422088 -0.985195 0.114097 0.125538 
-1.53089 0.0918291 0.196521 -1.98342 -0.00364425 0.255086 -2.45523 -0.133825 0.313244 
-2.93865 -0.29626 0.36854 -3.40172 -0.49525 0.415634 -3.84711 -0.722181 0.453547 
-4.28569 -0.966012 0.482326 -4.71908 -1.22222 0.500791 -5.14659 -1.488 0.507384 
-5.57028 -1.75928 0.500485 -5.99278 -2.03181 0.47826 -6.41509 -2.30264 0.437817 
-6.8375 -2.56934 0.375688 -7.25895 -2.82999 0.28713 -7.67752 -3.08291 0.166819 
-8.08863 -3.32699 0.00861046 -8.48621 -3.56163 -0.193503 -8.86103 -3.78808 -0.442827 
-9.20281 -4.00845 -0.740772 -9.50229 -4.22593 -1.08317 -9.75137 -4.44402 -1.46324 
-9.94707 -4.6656 -1.87166 -10.089 -4.89319 -2.29829 -10.1795 -5.12824 -2.73472 
-10.2225 -5.37172 -3.17361 -10.2219 -5.62397 -3.60959 -10.1821 -5.88507 -4.03837 
-10.1065 -6.155 -4.4567 -9.99807 -6.43367 -4.86186 -9.85923 -6.72114 -5.25124 
-9.69181 -7.01757 -5.62225 -9.49681 -7.32335 -5.97157 -9.27476 -7.63899 -6.29535 
-9.02606 -7.96492 -6.58791 -8.75097 -8.30153 -6.84213 -8.44853 -8.64979 -7.04551 
-8.11812 -9.01008 -7.18139 -7.76938 -9.3741 -7.22076 -7.41903 -9.72778 -7.13022 
-7.09406 -10.0506 -6.90864 -6.82579 -10.32 -6.57615 -6.62242 -10.5338 -6.16431 
-6.4773 -10.7031 -5.71035 -6.38151 -10.839 -5.23497 -6.325 -10.9521 -4.74766 
-6.30083 -11.0505 -4.25444 -6.3043 -11.1399 -3.75899 -6.33158 -11.2253 -3.26372 
-6.37952 -11.3112 -2.77011 -6.44553 -11.4016 -2.27944 -6.52745 -11.5007 -1.79282 
-6.62309 -11.6125 -1.31149 -6.73019 -11.7412 -0.836803 -6.84612 -11.8913 -0.370516 
-6.96791 -12.0672 0.0852477 -7.09192 -12.2731 0.527713 -7.21387 -12.5126 0.953555 
-7.32899 -12.7879 1.35937 -7.43209 -13.0992 1.74173 -7.51849 -13.4444 2.09825 
-7.58407 -13.8198 2.42757 -7.62595 -14.2204 2.73001 -7.64244 -14.6403 3.0075 
-7.63285 -15.0741 3.26305 -7.59739 -15.5165 3.50071 -7.5364 -15.9633 3.72443 
-7.45021 -16.4109 3.93805 -7.33894 -16.8562 4.14489 -7.2024 -17.2962 4.34774 
-7.04026 -17.7282 4.54902 -6.85199 -18.1493 4.75073 -6.63708 -18.5564 4.95455 
-6.39498 -18.9462 5.16178 -6.12559 -19.3153 5.37332 -5.82929 -19.6602 5.58968 
-5.5071 -19.9777 5.81095 -5.16079 -20.2652 6.03679 -4.79269 -20.5207 6.26668 
-4.40584 -20.7432 6.49992 -4.00336 -20.9327 6.73582 -3.58843 -21.09 6.97375 
-3.16402 -21.2165 7.2132 -2.73272 -21.314 7.45383 -2.29679 -21.3846 7.69543 
-1.85807 -21.4305 7.9379 -1.41807 -21.4539 8.18119 -0.977903 -21.4567 8.42526 
-0.53847 -21.4407 8.6701 -0.100355 -21.408 8.91561 0.336013 -21.3602 9.16171 
0.77043 -21.299 9.40831 1.20284 -21.2264 9.65528 1.63341 -21.1442 9.90247 
2.06242 -21.0547 10.1498 2.49024 -20.96 10.3972 2.91734 -20.8625 10.6448 
3.34422 -20.7648 10.8927 3.77139 -20.6697 11.1411 4.19924 -20.5802 11.3905 
4.62805 -20.4998 11.6413 5.05783 -20.4319 11.8942 5.48834 -20.3802 12.1497 
5.91882 -20.3487 12.4086 6.3481 -20.3414 12.6715 6.77422 -20.3624 12.9388 
7.19471 -20.4157 13.2106 7.6061 -20.5047 13.4871 8.00447 -20.6324 13.7676 
8.38515 -20.8006 14.0514 8.74341 -21.01 14.3371 9.07463 -21.2591 14.6235 
9.37489 -21.5455 14.9091 9.6421 -21.8647 15.1928 9.87484 -22.2117 15.4739 
10.0727 -22.5814 15.7533 10.236 -22.9686 16.0316 10.3678 -23.3676 16.3075 
10.4698 -23.7741 16.5823 10.5387 -24.1877 16.8664 10.5736 -24.6043 17.1643 
10.5868 -25.0039 17.4515 10.582 -25.3801 17.7254 10.5202 -25.7894 18.0885 
10.3908 -26.2298 18.5638 10.3145 -26.4455 18.8142 
LINES 1 129
128 0 1 2 3 4 5 6 7 8 9 10 11 12 13 14 15 16 17 18 19 20 21 22 23 24 25 26 27 28 29 30 31 32 33 34 35 36 37 38 39 40 41 42 43 44 45 46 47 48 49 50 51 52 53 54 55 56 57 58 59 60 61 62 63 64 65 66 67 68 69 70 71 72 73 74 75 76 77 78 79 80 81 82 83 84 85 86 87 88 89 90 91 92 93 94 95 96 97 98 99 100 101 102 103 104 105 106 107 108 109 110 111 112 113 114 115 116 117 118 119 120 121 122 123 124 125 126 127 

CELL_DATA 1
FIELD FieldData 2
Length 1 1 double
59.975104694 
Tortuosity 1 1 double
0.7611366167 
POINT_DATA 128
SCALARS MaximumInscribedSphereRadius float
LOOKUP_TABLE default
0.62 0.785756 0.951512 1.07863 1.20371 1.14062 1.07407 1.06817 1.06563 
1.15307 1.24656 1.3732 1.50275 1.5792 1.64996 1.56574 1.46177 1.42531 
1.39885 1.43543 1.48271 1.44306 1.38675 1.39115 1.40853 1.46582 1.53259 
1.54784 1.54961 1.53943 1.52583 1.46363 1.38614 1.35778 1.34627 1.44901 
1.59432 1.6904 1.76661 1.7573 1.71079 1.66673 1.62382 1.59679 1.57739 
1.57172 1.57312 1.62115 1.69502 1.76531 1.83349 1.86 1.86 1.86 
1.86 1.85871 1.85647 1.83805 1.80706 1.7637 1.71009 1.72385 1.79717 
1.88874 1.99749 2.03627 2.00482 1.97728 1.9539 1.97065 2.0332 2.07252 
2.08356 2.05806 1.98507 1.94305 1.94404 1.97293 2.04321 2.05884 1.98776 
1.89787 1.77604 1.72046 1.78537 1.86045 1.95538 1.99336 1.9117 1.81857 
1.69946 1.60557 1.57338 1.56307 1.61079 1.68309 1.82622 1.96448 2.08744 
2.18853 2.21428 2.23541 2.239 2.23765 2.21561 2.19561 2.18515 2.17726 
2.18279 2.18735 2.18617 2.18441 2.17876 2.17353 2.17168 2.17273 2.20089 
2.2326 2.30447 2.37235 2.38138 2.38609 2.3142 2.24307 2.21222 2.18322 
2.18901 2.1948 
TEXTURE_COORDINATES TCoords 2 float
0 0 0.00787402 0 0.015748 0 0.023622 0 0.0314961 
0 0.0393701 0 0.0472441 0 0.0551181 0 0.0629921 0 
0.0708661 0 0.0787402 0 0.0866142 0 0.0944882 0 0.102362 
0 0.110236 0 0.11811 0 0.125984 0 0.133858 0 
0.141732 0 0.149606 0 0.15748 0 0.165354 0 0.173228 
0 0.181102 0 0.188976 0 0.19685 0 0.204724 0 
0.212598 0 0.220472 0 0.228346 0 0.23622 0 0.244094 
0 0.251969 0 0.259843 0 0.267717 0 0.275591 0 
0.283465 0 0.291339 0 0.299213 0 0.307087 0 0.314961 
0 0.322835 0 0.330709 0 0.338583 0 0.346457 0 
0.354331 0 0.362205 0 0.370079 0 0.377953 0 0.385827 
0 0.393701 0 0.401575 0 0.409449 0 0.417323 0 
0.425197 0 0.433071 0 0.440945 0 0.448819 0 0.456693 
0 0.464567 0 0.472441 0 0.480315 0 0.488189 0 
0.496063 0 0.503937 0 0.511811 0 0.519685 0 0.527559 
0 0.535433 0 0.543307 0 0.551181 0 0.559055 0 
0.566929 0 0.574803 0 0.582677 0 0.590551 0 0.598425 
0 0.606299 0 0.614173 0 0.622047 0 0.629921 0 
0.637795 0 0.645669 0 0.653543 0 0.661417 0 0.669291 
0 0.677165 0 0.685039 0 0.692913 0 0.700787 0 
0.708661 0 0.716535 0 0.724409 0 0.732283 0 0.740157 
0 0.748031 0 0.755906 0 0.76378 0 0.771654 0 
0.779528 0 0.787402 0 0.795276 0 0.80315 0 0.811024 
0 0.818898 0 0.826772 0 0.834646 0 0.84252 0 
0.850394 0 0.858268 0 0.866142 0 0.874016 0 0.88189 
0 0.889764 0 0.897638 0 0.905512 0 0.913386 0 
0.92126 0 0.929134 0 0.937008 0 0.944882 0 0.952756 
0 0.96063 0 0.968504 0 0.976378 0 0.984252 0 
0.992126 0 1 0 
FIELD FieldData 7
Curvature 1 128 double
0 0.027021292303 0.049091367004 0.067385327261 0.08080813454 0.088919375661 0.092052011069 0.091298355516 0.08833272649 
0.085156708579 0.08372588052 0.085497560757 0.091025910135 0.10000632305 0.11166718293 0.12514675446 0.13962647301 0.15432389675 
0.16842973684 0.18108946546 0.19147152973 0.19888967377 0.20292844829 0.2035524346 0.20117870741 0.19656180267 0.19068283091 
0.18460334968 0.17946815237 0.17624125261 0.1759192671 0.17947480676 0.187839829 0.2020759705 0.22326346354 0.25246038681 
0.29038116471 0.3365173647 0.38781832906 0.43716252495 0.47336768026 0.48489426046 0.46636433279 0.42233044767 0.36410725272 
0.30308694618 0.24672528817 0.19823119177 0.15816730603 0.12601879344 0.10127473632 0.083905381797 0.074347444751 0.072614469286 
0.077301621621 0.08611442721 0.096876997076 0.10800663039 0.11833604152 0.12698678608 0.13331652955 0.1369382062 0.13775480869 
0.13600783897 0.13223870083 0.12719112087 0.12174508242 0.11677891668 0.11304016584 0.11103939345 0.11100194499 0.11281995935 
0.11615150805 0.12047049554 0.12520273591 0.12982298064 0.1337465187 0.13661823223 0.13809287279 0.1379717103 0.13620372927 
0.13289258711 0.12816098771 0.12228197897 0.11546926639 0.10809096216 0.1002517502 0.092170586205 0.083994139498 0.075769707144 
0.067474030037 0.059132523572 0.050657041674 0.042005438569 0.033101870259 0.023925810286 0.014500016398 0.0059391022725 0.0087686653761 
0.019267305979 0.03091117588 0.043267930966 0.056180917492 0.069588503012 0.083322684202 0.097179189006 0.11088558308 0.1241081001 
0.13635507524 0.14716179923 0.15597395398 0.1623844021 0.16605168417 0.16690886786 0.16503591468 0.16084655526 0.15480903893 
0.1474149653 0.13908995851 0.12998657578 0.11993065099 0.10855060345 0.095319640846 0.079803537029 0.061855133814 0.041719920879 
0.019975456261 0 
Torsion 1 128 double
0 0 -0.033527428675 -0.049886933861 -0.071270772364 -0.099625043848 -0.13723865447 -0.18565728435 -0.24280920343 
-0.29803986988 -0.32988354194 -0.31750444403 -0.26133529282 -0.1829469376 -0.10451478612 -0.037355283288 0.016155552036 0.057467193179 
0.088857741881 0.11263772181 0.13083968711 0.14498935568 0.15628063623 0.1657457701 0.17405120171 0.18183814853 0.1894505782 
0.19688076669 0.20370703357 0.2091468446 0.21188957182 0.21047078989 0.20414941027 0.19307288497 0.17856895364 0.16254589475 
0.14663026614 0.1323551304 0.12047310869 0.11155058741 0.10598298046 0.10403077883 0.1060950341 0.11253517691 0.12402636754 
0.14173496785 0.1678467536 0.2062839021 0.26264045269 0.34440817178 0.45611614602 0.58366822699 0.66961020463 0.64672386146 
0.537221309 0.41592983724 0.32179450668 0.25778506153 0.21694114773 0.19254767739 0.17974987763 0.17602403345 0.17972338849 
0.18983456423 0.20561680195 0.22568585198 0.24767761774 0.26786369574 0.28114534626 0.28275374535 0.27088071466 0.2475767363 
0.21744892266 0.18534109203 0.15516660136 0.12864848277 0.10685132491 0.089514999492 0.075973593719 0.065770432448 0.058345820651 
0.052950447961 0.049037068365 0.046396488198 0.04447370474 0.042890452877 0.041477538409 0.040123527393 0.038629533706 0.037315639582 
0.036584169254 0.036988692375 0.040585520182 0.050864871397 0.077769665421 0.15280682542 0.44537022778 2.8522933147 1.3594380993 
0.27319103314 0.091196777679 0.031527251637 0.0042322738839 -0.01107208512 -0.021160541487 -0.028241564232 -0.033820583946 -0.03918948905 
-0.04437353416 -0.050330160379 -0.057312440246 -0.065534872102 -0.07590665912 -0.088277619364 -0.10263361036 -0.11867401652 -0.13486362054 
-0.14924353873 -0.15935968432 -0.16219481366 -0.15726837579 -0.14433225285 -0.1247323265 -0.10177116382 -0.077123496056 -0.053594856486 
0 0 
Abscissas 1 128 double
0 0.50321231125 1.0064246225 1.5096386981 2.0128528669 2.5160614116 3.0192698528 3.5224846677 4.025699836 
4.5289119383 5.0321238342 5.535336083 6.0385483628 6.5417599869 7.0449715409 7.5481831056 8.0513946718 8.5546064473 
9.0578182538 9.5610320087 10.064246094 10.567454903 11.0706627 11.57387571 12.077089836 12.580297459 13.083503541 
13.58671439 14.089926488 14.59314072 15.096355566 15.599567162 16.102777735 16.605990114 17.109203113 17.612414314 
18.115624845 18.618838979 19.122054567 19.625266816 20.128477615 20.631696222 21.13491853 21.638123529 22.141320197 
22.644527022 23.14773908 23.650952727 24.154167254 24.65737986 25.160591325 25.663805843 26.167022304 26.670236 
27.173447815 27.676658504 28.179868374 28.683084237 29.186304758 29.689513871 30.192713522 30.695918895 31.199129327 
31.702336736 32.205541297 32.708753922 33.211974638 33.715204662 34.218444646 34.721669569 35.224877304 35.728087018 
36.231299142 36.734504946 37.237702532 37.740912985 38.244141308 38.747354079 39.250543781 39.75374662 40.256970298 
40.760190835 41.263406041 41.766616362 42.269817799 42.773024901 43.27624307 43.779458779 44.28266932 44.785880151 
45.28909164 45.792304592 46.295521127 46.798735127 47.30194241 47.805149652 48.308356776 48.811564191 49.314772522 
49.817984419 50.32120859 50.824427303 51.327625341 51.830826289 52.334039441 52.837253769 53.340473587 53.843693537 
54.346914178 54.850131435 55.353328622 55.856529919 56.359759117 56.862984389 57.366178776 57.86937327 58.372568778 
58.875766587 59.378990442 59.882214074 60.385434425 60.888654663 61.391872893 61.895090972 62.39830089 62.901509166 
63.404686547 63.907863928 
ParallelTransportNormals 3 128 double
0.12644701508 0 0.99197336274 0.12754671614 5.853315367e-06 0.99183191323 0.1286464172 1.1706630734e-05 0.99169046373 
0.12367765491 -0.0010675036388 0.99230740131 0.11838837431 -0.002204023763 0.99296439466 0.10807062846 -0.0061994159508 0.99405840414 
0.097660380555 -0.010247399048 0.99516045283 0.083094333165 -0.017800861187 0.99624108331 0.068297902134 -0.025548655375 0.99732052643 
0.049189717316 -0.037013029801 0.99784274962 0.029791077201 -0.048727766486 0.99832743647 0.0040424866483 -0.065092087452 0.99737871199 
-0.022264429162 -0.081865227411 0.9963039535 -0.059143487261 -0.1052228277 0.9916501416 -0.097153973288 -0.12928509522 0.98661330033 
-0.15096342141 -0.16223864764 0.97282146318 -0.20678528317 -0.19632473922 0.95791444689 -0.27898340509 -0.23962257571 0.92517988846 
-0.35360924231 -0.28428601668 0.88980246796 -0.43064383303 -0.33336972205 0.8313443866 -0.50808734434 -0.38320383093 0.76896803081 
-0.56711655759 -0.43009927202 0.69456935207 -0.62261715873 -0.47643159533 0.61786691381 -0.65374703528 -0.51497680508 0.54855830378 
-0.67966287186 -0.55185598634 0.48083158007 -0.68995950773 -0.58071331201 0.42856945991 -0.69655107584 -0.60766775422 0.37997573517 
-0.6963298334 -0.6284950447 0.34463253413 -0.69432477305 -0.64771804529 0.3127587561 -0.6900854551 -0.66265046335 0.28996716853 
-0.68520343001 -0.67634865129 0.26978816632 -0.68009713519 -0.68688412978 0.25574497095 -0.6749202595 -0.69642425873 0.24363280105 
-0.67064872118 -0.70315064545 0.23607007887 -0.66668774848 -0.70891181014 0.23006799261 -0.66540644375 -0.71073138217 0.22824309174 
-0.66512362024 -0.71108226245 0.22797466772 -0.67246592476 -0.70298215217 0.23100697272 -0.68288444574 -0.69147264653 0.23537089561 
-0.70901086625 -0.66441826962 0.23184930179 -0.74196658115 -0.63060547782 0.22489933648 -0.7778430461 -0.59406012517 0.19499246142 
-0.81510340648 -0.55622004399 0.15420825626 -0.83963789322 -0.5296717984 0.10710639815 -0.85804636879 -0.50855924335 0.056963333312 
-0.86821735263 -0.4942403281 0.011529097183 -0.87414372832 -0.48342203411 -0.031478777458 -0.87637319029 -0.47491091593 -0.071384056179 
-0.87655364356 -0.46767854636 -0.10956972592 -0.87459631765 -0.46093015726 -0.1464393441 -0.87136930561 -0.45446921754 -0.18252732292 
-0.86655608067 -0.44742808978 -0.21843205031 -0.86073379959 -0.44001788024 -0.25422020383 -0.85367749756 -0.43117874722 -0.29000479975 
-0.84578128236 -0.4213670443 -0.32578697424 -0.83724176948 -0.40950306675 -0.3607430847 -0.82823416636 -0.39614576856 -0.39509811653 
-0.81967693625 -0.38102940494 -0.42657891525 -0.81146976945 -0.36454576517 -0.45582564675 -0.80502262885 -0.34869589552 -0.47943037242 
-0.80003511898 -0.3333716262 -0.49835605124 -0.79701610523 -0.32224144827 -0.51073171041 -0.79573727309 -0.31481891325 -0.51731704891 
-0.79521727792 -0.3138240277 -0.51876319308 -0.79541192913 -0.3188824799 -0.51536942194 -0.79479100639 -0.33027057908 -0.50883972006 
-0.79335161683 -0.3480107767 -0.4991629642 -0.78992827145 -0.37091023138 -0.48752248252 -0.7843820182 -0.39933028649 -0.47378073985 
-0.77595194325 -0.43184581561 -0.4583558344 -0.76423115842 -0.46903466306 -0.44101028302 -0.74868076551 -0.50948687368 -0.42177168795 
-0.72846654886 -0.55391331622 -0.40022768146 -0.7034858485 -0.6004408819 -0.37650648044 -0.67230853788 -0.64969998765 -0.34995484364 
-0.63612990315 -0.69894665753 -0.32138804991 -0.59300614055 -0.74817605825 -0.29002289273 -0.54604299994 -0.79484370118 -0.25749300192 
-0.49338506575 -0.83771159276 -0.223235509 -0.43925232255 -0.87631806245 -0.18906875454 -0.3827799836 -0.90816433165 -0.15504594506 
-0.32717884044 -0.93563850437 -0.12212553461 -0.27305648845 -0.95569136277 -0.091076365965 -0.221148464 -0.97235132327 -0.061552550583 
-0.17326854136 -0.98283923474 -0.034803518127 -0.12790599917 -0.99112373177 -0.0095291518969 -0.087460763552 -0.99510420539 0.012864685907 
-0.04929611737 -0.99780595257 0.034015920508 -0.015922822172 -0.99782118938 0.052556537001 0.015455618421 -0.99717437265 0.070036105387 
0.042316187183 -0.99502816191 0.085112651845 0.06732744939 -0.99264566817 0.099192731533 0.087813187988 -0.98968495538 0.1108343113 
0.10640533344 -0.98682032121 0.12142242941 0.11997734898 -0.98421040237 0.12921770136 0.13151478253 -0.98195130494 0.13585035381 
0.13718949914 -0.98070311127 0.1391328788 0.14065389016 -0.97994400792 0.1411347343 0.13717065979 -0.98072224117 0.13911111647 
0.13124468141 -0.98196597372 0.13565870954 0.11690874454 -0.98481233977 0.12728722914 0.099978304338 -0.98785655462 0.11736109805 
0.07322110361 -0.99165012788 0.10154668005 0.043870842723 -0.99510173063 0.084078337723 0.0036492652203 -0.99711963371 0.059675973828 
-0.038892398496 -0.99802536289 0.033589077783 -0.092266698397 -0.99373827847 -0.00036301043296 -0.14721495598 -0.98753164624 -0.035822622876 
-0.21040786836 -0.97127010012 -0.079178900501 -0.27392986309 -0.95266926361 -0.12352835035 -0.33940292963 -0.92019918222 -0.17376614522 
-0.40381537475 -0.88584084347 -0.22415613797 -0.46102758023 -0.83866369375 -0.27557935644 -0.51640813931 -0.79081630929 -0.32636861139 
-0.55737447316 -0.73769448187 -0.37216886138 -0.59671991946 -0.68494872861 -0.41708651807 -0.62094491289 -0.63571118387 -0.45377090135 
-0.64414397464 -0.58729043634 -0.48968335057 -0.65573613184 -0.54811054513 -0.51686250378 -0.66682774048 -0.50969745967 -0.54351817146 
-0.67055027219 -0.48257329032 -0.56246708389 -0.67406835073 -0.45619140065 -0.58094061599 -0.67396556852 -0.44295526564 -0.59099517414 
-0.67388355239 -0.43006277404 -0.60077020979 -0.67491729428 -0.43563419095 -0.59552654417 -0.67589888996 -0.44092456261 -0.59054739068 
-0.67589888996 -0.44092456261 -0.59054739068 -0.67589888996 -0.44092456261 -0.59054739068 
FrenetTangent 3 128 double
-0.98223674185 -0.15040437832 0.11220296759 -0.98223674185 -0.15040437832 0.11220296759 -0.9796696626 -0.16853718602 0.10882356872 
-0.97514916362 -0.19606543109 0.10316227715 -0.96838662786 -0.23065338977 0.095007119603 -0.95930427997 -0.26954989053 0.084131771282 
-0.94814946161 -0.30994869516 0.070316461861 -0.93547766598 -0.34933651521 0.053343561897 -0.92201642514 -0.38574412166 0.032972478964 
-0.90846977774 -0.41785556474 0.0089101032583 -0.89533146927 -0.44498617661 -0.019205800221 -0.88275067792 -0.46697765166 -0.051798778705 
-0.87046382453 -0.4840613881 -0.089315747433 -0.85778491754 -0.49672806449 -0.13215999848 -0.84364078761 -0.50562226956 -0.18059995022 
-0.82664384193 -0.51146327921 -0.23465990843 -0.80520249375 -0.51498586512 -0.2940042564 -0.77766863549 -0.51690063179 -0.35783408199 
-0.74252295877 -0.51786771049 -0.42482077413 -0.6985917051 -0.51847538989 -0.49310536363 -0.64525839695 -0.51923111512 -0.56039329962 
-0.58261972801 -0.52056380172 -0.62415349143 -0.51153916006 -0.52282832865 -0.68189311954 -0.43356586554 -0.52631211473 -0.73144801464 
-0.35071503713 -0.53124618202 -0.77121751589 -0.26517221832 -0.53781162116 -0.80027642398 -0.17900509866 -0.54615219012 -0.81833670325 
-0.093943127255 -0.55638504163 -0.82559698055 -0.011237674693 -0.56861124704 -0.82252961309 0.068352307932 -0.58292377906 -0.80964673149 
0.1444938067 -0.59940656573 -0.78729493126 0.21718862989 -0.61812201466 -0.75548280857 0.28661582137 -0.6390649848 -0.71375578186 
0.35295825003 -0.6620877399 -0.66110536106 0.41619375265 -0.68677446376 -0.59592247498 0.47582016901 -0.71224799269 -0.51604066087 
0.53052613972 -0.73691019463 -0.41893362259 0.57782437805 -0.75813369782 -0.3022454042 0.61378806505 -0.77207027733 -0.16483839987 
0.63325909165 -0.77389419361 -0.0084083257097 0.63099883549 -0.75892267129 0.16086282545 0.60386388973 -0.7246470454 0.33201665964 
0.55294377399 -0.67261413997 0.49177576345 0.48382779818 -0.60849767654 0.62900019027 0.40450335027 -0.53998407469 0.73810178072 
0.32253702086 -0.47412503041 0.81925290705 0.24339120232 -0.41584472317 0.87626131311 0.17020470967 -0.36784510423 0.91417740953 
0.10436317303 -0.33121184741 0.9377670501 0.046202539051 -0.30607872525 0.95088439851 -0.0044590013669 -0.2921031378 0.95637642913 
-0.047984052836 -0.28873247676 0.95620661341 -0.084729947878 -0.29533262073 0.95162990656 -0.11495914644 -0.31122289472 0.9433582058 
-0.13880136327 -0.33564550882 0.93170610922 -0.15625491677 -0.36772682278 0.91671226936 -0.16721728256 -0.40642433129 0.89825254987 
-0.17153286405 -0.45047764055 0.87615430828 -0.16906261195 -0.49839375263 0.85030670971 -0.15975585284 -0.5484663946 0.82076956661 
-0.14371452878 -0.59885297463 0.78785864785 -0.12124470679 -0.64769677082 0.75218921432 -0.092858233909 -0.69327088295 0.71466973578 
-0.059239969236 -0.73411876296 0.67643201278 -0.021179255398 -0.7691521343 0.63871467295 0.020514651951 -0.79767744512 0.60273530061 
0.065086084116 -0.81936205417 0.56956968479 0.11188929251 -0.8341536053 0.54006346756 0.16040932852 -0.84217402505 0.51479292813 
0.21024604158 -0.84362418875 0.49405954111 0.26107954862 -0.83871490334 0.47790666474 0.3126251917 -0.82762428323 0.46615827282 
0.36458346665 -0.81048710934 0.45846432952 0.41659407289 -0.78741337596 0.45434519234 0.46820241713 -0.75853139802 0.45322909749 
0.51885939447 -0.72402942997 0.45449566919 0.56792144968 -0.68421589901 0.45750828466 0.61468827735 -0.63955492849 0.46165768177 
0.65846514112 -0.59067717111 0.46639483001 0.69861212995 -0.53838941212 0.47125145391 0.73460967537 -0.48363346611 0.4758647868 
0.76610849821 -0.4274217651 0.47998792036 0.79294919543 -0.37078123105 0.48347993978 0.8151634829 -0.31469014822 0.48629066078 
0.83295101311 -0.26002547968 0.48844586155 0.8466517097 -0.20751505043 0.49001876119 0.85669846759 -0.15774069965 0.4911065132 
0.86357547137 -0.11116117993 0.49181357985 0.86779082476 -0.068095841541 0.49224185196 0.86984799349 -0.02876575945 0.49248045576 
0.87022517487 0.0066609624775 0.49260915196 0.8693667512 0.038057309663 0.49269980016 0.86767687448 0.065313725443 0.49281939772 
0.86551269497 0.088312885198 0.49304016993 0.86318066656 0.10692315242 0.49344358984 0.86092984551 0.12099021318 0.49412667346 
0.85894923944 0.13032693789 0.49519803446 0.85735784899 0.13472015887 0.4967776138 0.85619303756 0.13393608454 0.49899359484 
0.85540136423 0.12771660502 0.50197308183 0.8548257668 0.11580806978 0.50582744033 0.85419261831 0.097965801141 0.51064437002 
0.85310481031 0.073973899322 0.51646882272 0.8510366599 0.043676452438 0.52328670059 0.84733319785 0.0070135928099 0.53101531178 
0.84122281138 -0.035921438268 0.53949405176 0.83185030562 -0.084841639421 0.54847695053 0.81832501418 -0.13922323069 0.55763882864 
0.79978517103 -0.19824845868 0.56660500248 0.77549383609 -0.26079119595 0.57497587975 0.74492943201 -0.32543002567 0.58238770567 
0.70787497994 -0.39051194776 0.58856896914 0.66447990134 -0.45426409861 0.59338907087 0.6152625133 -0.51492412859 0.59691304352 
0.56107802621 -0.5708872919 0.59939898937 0.5030305771 -0.62083545791 0.60126830342 0.44235968198 -0.66381708912 0.60304625358 
0.38036948061 -0.69927105689 0.60525948751 0.31836598986 -0.72702674972 0.60833806529 0.25764231288 -0.74727997737 0.61253005969 
0.19951754543 -0.76057759063 0.61783046032 0.1453542919 -0.76779109567 0.62399436154 0.096552290681 -0.77010720202 0.63056526431 
0.054516228957 -0.76896915489 0.63695715681 0.020565615035 -0.7659487536 0.64257261251 -0.0041745158176 -0.7625714621 0.64689051516 
-0.018864387607 -0.76009925006 0.64953311304 -0.018864387607 -0.76009925006 0.64953311304 
FrenetNormal 3 128 double
0.12971042583 -0.97630645486 -0.17320771239 0.12971042583 -0.97630645486 -0.17320771239 0.14641685095 -0.97148968588 -0.1864668764 
0.17156497096 -0.96289818182 -0.20830879049 0.20259303643 -0.94941140412 -0.23994592581 0.23630714147 -0.92944122649 -0.28336891395 
0.26908157797 -0.90058336821 -0.34138643984 0.29698366765 -0.85897332462 -0.41709175099 0.3158307338 -0.79868894587 -0.51219812117 
0.32174933033 -0.71281163824 -0.62319895444 0.31324370733 -0.59843349075 -0.7373979502 0.29466699853 -0.46438274234 -0.83517664514 
0.27660505537 -0.33093684698 -0.90220310721 0.27042991479 -0.21747034614 -0.93785623085 0.28266354075 -0.1322862535 -0.95005350895 
0.3144953469 -0.074105859924 -0.94636198059 0.36382158059 -0.037508636529 -0.93071314576 0.42719722653 -0.016900139996 -0.90400050604 
0.50057995176 -0.0076141158295 -0.86565682411 0.57973181821 -0.0062136942458 -0.81478365776 0.66041788819 -0.010365172471 -0.75082672845 
0.73860194975 -0.018667174157 -0.67388329586 0.81057716218 -0.030293415798 -0.58484782047 0.8732057343 -0.044909602614 -0.48527814002 
0.92402755429 -0.062444304252 -0.37719197736 0.96127746684 -0.08287395671 -0.26282606233 0.98381456712 -0.10623766188 -0.14429988472 
0.99093365175 -0.13225869282 -0.023624902097 0.98225079032 -0.16030336822 0.097397202462 0.95765475707 -0.18917526409 0.21704857917 
0.91744374035 -0.21691890438 0.33353136615 0.86250355065 -0.24088403184 0.44504214218 0.79448608096 -0.25779259507 0.54984983868 
0.71544679006 -0.26435913225 0.64672261425 0.62734764631 -0.25752386721 0.73492611091 0.53123740986 -0.2348775058 0.81401435591 
0.42701865616 -0.19459287704 0.88305644185 0.31371960988 -0.13555935671 0.93978916103 0.19023440791 -0.058002415417 0.98002377005 
0.056996388613 0.035798462856 0.9977323698 -0.0828740492 0.14022651174 0.98664503109 -0.22292106069 0.24638187591 0.94318724118 
-0.35511254844 0.34368773543 0.8693525283 -0.47292587487 0.42295842195 0.77294714579 -0.57377605452 0.47862645101 0.66460346045 
-0.65928246569 0.50852104295 0.55385284988 -0.73356565138 0.51211460247 0.44678861786 -0.80161658924 0.48785783075 0.34555112623 
-0.86723968694 0.43125311352 0.24882941442 -0.93058223112 0.33286968894 0.15236299193 -0.9827063411 0.17832520152 0.049883561055 
-0.99702410265 -0.043981913902 -0.06331295277 -0.93072638529 -0.31754695127 -0.18141755555 -0.76602815689 -0.57683748476 -0.28365362511 
-0.54910643348 -0.7568614352 -0.35446141203 -0.33980685847 -0.85144469718 -0.39946617701 -0.16307756718 -0.88712905033 -0.43174964405 
-0.017845043365 -0.88776906059 -0.45994309376 0.10364045699 -0.86693203089 -0.48753205996 0.20897269153 -0.83139461377 -0.51489164918 
0.30355124963 -0.7844215544 -0.54086917441 0.39105916466 -0.72766231685 -0.56354261806 0.47424592583 -0.66191775114 -0.58047884764 
0.55467830038 -0.58759161301 -0.58912484195 0.63334666133 -0.50463945808 -0.58669500077 0.71002569421 -0.41280625912 -0.57048620141 
0.78304265386 -0.311871339 -0.53812681605 0.84886022469 -0.2023249015 -0.48836559376 0.90250934309 -0.086045223912 -0.42198709112 
0.93872808989 0.03303103341 -0.34307218495 0.95432715836 0.14976325415 -0.25851623262 0.94954789523 0.25938610731 -0.1762885192 
0.92763268548 0.35900517252 -0.10301886689 0.89306460643 0.44790663473 -0.042605813174 0.84996887663 0.52682029104 0.0036455058766 
0.80125157105 0.59720417148 0.036648293936 0.7488248625 0.6602375159 0.057859726086 0.69361135202 0.71696777877 0.069717261565 
0.63635513475 0.76783606619 0.074026467759 0.57751526408 0.81312523682 0.072824920171 0.51766869806 0.85290006558 0.067680109193 
0.45730165608 0.88727157514 0.060202552139 0.3971719562 0.91630813167 0.05132099995 0.33785633636 0.94025491494 0.042116397302 
0.28000341397 0.95942270505 0.033259001733 0.22419646314 0.97421809316 0.025200255337 0.17093880538 0.98511311441 0.018222970034 
0.12067417366 0.99261394682 0.012461797298 0.073689060552 0.99724878748 0.008048492343 0.030312070815 0.99952874859 0.0048434603656 
-0.0095170088358 0.99994929572 0.0032912826199 -0.045694923293 0.99894942418 0.003467262288 -0.07874471952 0.99687346171 0.0065246062769 
-0.10957833492 0.99387473744 0.014338576865 -0.14074354974 0.98953581652 0.031782401202 -0.17889551039 0.98127218956 0.071423290062 
-0.24745695997 0.95229537086 0.17860173456 -0.46185479822 0.62740158881 0.62694289351 -0.21773531685 -0.78231853835 0.58358293014 
-0.066592635801 -0.93396434693 0.35110684914 -0.034959789301 -0.95971140846 0.27880427832 -0.035938625664 -0.96861756043 0.24594397086 
-0.052644571183 -0.97264096793 0.22626996405 -0.080138161664 -0.97405851761 0.21163147052 -0.11620501209 -0.97323227487 0.19828094793 
-0.15983484857 -0.96971823432 0.18466013972 -0.20993336306 -0.96292052792 0.16944627465 -0.26580243682 -0.95190469651 0.15240247156 
-0.32660178245 -0.93566753599 0.13363209865 -0.39110768724 -0.9133524162 0.1132348922 -0.45835690419 -0.88395843222 0.092338716091 
-0.5268219547 -0.84694900346 0.071665986202 -0.5952531786 -0.80180474145 0.052752345452 -0.66236315 -0.74825656612 0.03724471488 
-0.72680885013 -0.68632192216 0.026666730899 -0.78733882684 -0.61610830419 0.022541722575 -0.84261007192 -0.53789675248 0.025987504075 
-0.89094564395 -0.45259954704 0.037006884967 -0.93070328128 -0.36163440834 0.05488129847 -0.96040198661 -0.26763690404 0.077450059443 
-0.97942008716 -0.17439955778 0.10159275125 -0.98846460479 -0.085576192406 0.12495775438 -0.98949507421 -0.0057813654556 0.14445093952 
-0.98523989338 0.062239084183 0.15946362873 -0.97869248103 0.11590940127 0.16948757559 -0.97231768071 0.15422808868 0.17553354221 
-0.96808979163 0.17625746714 0.17814449364 -0.96808979163 0.17625746714 0.17814449364 
FrenetBinormal 3 128 double
0.13559567982 -0.15557708438 0.97847308723 0.13559567982 -0.15557708438 0.97847308723 0.13714757722 -0.16674233765 0.97641565683 
0.14017692191 -0.18543310974 0.97260731664 0.14554518397 -0.21311264512 0.96612607868 0.15457759642 -0.25195607359 0.95531351067 
0.16913811764 -0.30476450462 0.93728911969 0.19152607552 -0.37433785106 0.90729760038 0.22391216884 -0.46184135842 0.85823417568 
0.26675837635 -0.56329059587 0.7820125787 0.31663850043 -0.66623168625 0.67518545621 0.36595436957 -0.75251614033 0.54753708361 
0.40716381659 -0.81004035446 0.42196238056 0.4371186297 -0.84021894676 0.32087291108 0.4564773206 -0.85255291194 0.25452306009 
0.46663972761 -0.85610375279 0.22211197418 0.46827641576 -0.85637763919 0.2175650191 0.46123098663 -0.85587856739 0.2339612251 
0.445061083 -0.85542682894 0.26488784935 0.41938126868 -0.85506997379 0.30491751574 0.38404402627 -0.85457101068 0.3495977311 