# vtk DataFile Version 4.2
vtk output
ASCII
DATASET POLYDATA
POINTS 128 float
0 0 0 -0.283024 0.169906 -0.0615157 -0.853069 0.481795 -0.175105 
-1.36142 0.688621 -0.252123 -1.81302 0.7951 -0.294059 -2.30003 0.867617 -0.324455 
-2.81189 0.89782 -0.340002 -3.31689 0.864069 -0.332563 -3.81003 0.774049 -0.304298 
-4.29341 0.64256 -0.259917 -4.7657 0.477397 -0.201926 -5.22523 0.284415 -0.132375 
-5.67379 0.0704145 -0.0543854 -6.11426 -0.157909 0.0284709 -6.5494 -0.396029 0.112034 
-6.98184 -0.64035 0.191676 -7.41384 -0.888436 0.261224 -7.84728 -1.13844 0.313446 
-8.28261 -1.38965 0.33804 -8.71881 -1.64179 0.323034 -9.14862 -1.89479 0.253099 
-9.56166 -2.14862 0.113523 -9.94275 -2.40316 -0.0977438 -10.2763 -2.6584 -0.376148 
-10.5573 -2.9156 -0.707074 -10.786 -3.17659 -1.07235 -10.9679 -3.44337 -1.45876 
-11.1104 -3.71798 -1.85577 -11.2197 -4.00197 -2.2566 -11.3011 -4.29668 -2.6563 
-11.3584 -4.60325 -3.05114 -11.3945 -4.92279 -3.43792 -11.4112 -5.25713 -3.8136 
-11.4097 -5.60841 -4.17486 -11.3902 -5.97815 -4.5156 -11.352 -6.36826 -4.82796 
-11.2922 -6.78709 -5.10159 -11.2063 -7.24413 -5.32049 -11.0866 -7.72429 -5.42569 
-10.9262 -8.19553 -5.34126 -10.7431 -8.59628 -5.07283 -10.569 -8.85473 -4.6752 
-10.4156 -8.97477 -4.2045 -10.2832 -9.00304 -3.71426 -10.1713 -8.96524 -3.22569 
-10.0794 -8.8738 -2.74023 -10.0072 -8.74012 -2.25987 -9.95498 -8.57492 -1.78695 
-9.92299 -8.38643 -1.3216 -9.91137 -8.18123 -0.86245 -9.92045 -7.96554 -0.407981 
-9.95059 -7.74542 0.0434389 -10.002 -7.52699 0.493701 -10.0749 -7.31653 0.944886 
-10.1691 -7.12144 1.39902 -10.2846 -6.95015 1.85806 -10.42 -6.81321 2.32317 
-10.5734 -6.72291 2.79474 -10.7397 -6.69315 3.26969 -10.9115 -6.73864 3.74183 
-11.0788 -6.86662 4.20088 -11.2297 -7.07738 4.63336 -11.3564 -7.36205 5.03049 
-11.4549 -7.70389 5.38808 -11.5245 -8.08823 5.70629 -11.568 -8.50268 5.98919 
-11.5884 -8.93817 6.2408 -11.5887 -9.38882 6.46491 -11.5714 -9.85035 6.66466 
-11.5391 -10.3199 6.84252 -11.4935 -10.7955 7.00041 -11.4364 -11.2755 7.13971 
-11.3691 -11.7589 7.26171 -11.2932 -12.2448 7.36759 -11.2101 -12.7324 7.45897 
-11.1216 -13.2213 7.5379 -11.029 -13.7108 7.60703 -10.9338 -14.2007 7.66972 
-10.8372 -14.6907 7.72998 -10.7404 -15.1803 7.7926 -10.6441 -15.6689 7.86307 
-10.5489 -16.1556 7.9477 -10.4547 -16.6384 8.05372 -10.3611 -17.1139 8.18941 
-10.2662 -17.5771 8.36251 -10.1664 -18.0204 8.57972 -10.0559 -18.4348 8.84445 
-9.92607 -18.8097 9.15521 -9.7673 -19.1357 9.50573 -9.56945 -19.4058 9.8828 
-9.32531 -19.6161 10.271 -9.03277 -19.7683 10.6525 -8.69368 -19.8663 11.0126 
-8.31591 -19.9176 11.3425 -7.90797 -19.9297 11.6376 -7.47841 -19.9094 11.8998 
-7.03458 -19.8627 12.1325 -6.58155 -19.7943 12.3407 -6.12336 -19.7079 12.5297 
-5.66249 -19.6069 12.7043 -5.20086 -19.4939 12.8691 -4.73962 -19.3716 13.0282 
-4.2797 -19.2424 13.1856 -3.82174 -19.1086 13.3449 -3.36638 -18.9726 13.5097 
-2.91428 -18.8367 13.6834 -2.46623 -18.7032 13.8691 -2.0233 -18.5742 14.0697 
-1.58678 -18.4517 14.2878 -1.15834 -18.3371 14.5253 -0.739773 -18.2318 14.7839 
-0.333097 -18.1365 15.0645 0.0596172 -18.0519 15.3675 0.436187 -17.9787 15.6932 
0.794339 -17.9178 16.0415 1.13159 -17.8706 16.412 1.44571 -17.8393 16.804 
1.73534 -17.8283 17.2156 1.99969 -17.8422 17.6442 2.23923 -17.8852 18.0843 
2.4569 -17.9644 18.5298 2.66309 -18.0982 18.9719 2.86504 -18.2958 19.3993 
3.0539 -18.5288 19.7918 3.23182 -18.7883 20.1383 3.45602 -19.1714 20.4687 
3.7346 -19.6826 20.7783 3.87822 -19.9517 20.9203 
LINES 1 129
128 0 1 2 3 4 5 6 7 8 9 10 11 12 13 14 15 16 17 18 19 20 21 22 23 24 25 26 27 28 29 30 31 32 33 34 35 36 37 38 39 40 41 42 43 44 45 46 47 48 49 50 51 52 53 54 55 56 57 58 59 60 61 62 63 64 65 66 67 68 69 70 71 72 73 74 75 76 77 78 79 80 81 82 83 84 85 86 87 88 89 90 91 92 93 94 95 96 97 98 99 100 101 102 103 104 105 106 107 108 109 110 111 112 113 114 115 116 117 118 119 120 121 122 123 124 125 126 127 

CELL_DATA 1
FIELD FieldData 2
Length 1 1 double
58.132798884 
Tortuosity 1 1 double
0.99303618652 
POINT_DATA 128
SCALARS MaximumInscribedSphereRadius float
LOOKUP_TABLE default
0.62 0.691036 0.762073 0.882163 1.00643 1.2402 1.47565 1.59987 1.718 
1.60331 1.47261 1.36793 1.26555 1.21455 1.16914 1.17692 1.19163 1.25515 
1.32612 1.54862 1.7977 1.91029 1.99589 1.8784 1.7166 1.69666 1.71088 
1.76653 1.83322 1.85283 1.85859 1.8467 1.82911 1.7669 1.68893 1.59983 
1.50644 1.40468 1.29949 1.35714 1.48664 1.63514 1.79176 1.94285 2.0914 
2.23497 2.37611 2.27661 2.05048 1.80172 1.54015 1.47467 1.52862 1.60252 
1.68948 1.65858 1.54497 1.46595 1.41287 1.51548 1.7424 1.94528 2.12789 
2.27252 2.3832 2.44807 2.46929 2.4632 2.42929 2.33982 2.18984 2.08901 
2.04546 2.10312 2.28712 2.44682 2.57398 2.56704 2.36749 2.17168 1.98163 
1.86251 1.86098 1.89756 2.00208 2.13661 2.32861 2.48033 2.54933 2.5634 
2.45666 2.32314 2.12654 1.93804 1.77006 1.61785 1.50897 1.41114 1.34642 
1.32438 1.44263 1.57037 1.73253 1.89386 2.05182 2.20948 2.36576 2.51588 
2.6347 2.74148 2.77882 2.78659 2.59795 2.42045 2.32949 2.25172 2.29621 
2.35273 2.54613 2.73399 2.84081 2.93324 2.75785 2.58212 2.3857 2.19165 
2.02583 1.86 
TEXTURE_COORDINATES TCoords 2 float
0 0 0.00787402 0 0.015748 0 0.023622 0 0.0314961 
0 0.0393701 0 0.0472441 0 0.0551181 0 0.0629921 0 
0.0708661 0 0.0787402 0 0.0866142 0 0.0944882 0 0.102362 
0 0.110236 0 0.11811 0 0.125984 0 0.133858 0 
0.141732 0 0.149606 0 0.15748 0 0.165354 0 0.173228 
0 0.181102 0 0.188976 0 0.19685 0 0.204724 0 
0.212598 0 0.220472 0 0.228346 0 0.23622 0 0.244094 
0 0.251969 0 0.259843 0 0.267717 0 0.275591 0 
0.283465 0 0.291339 0 0.299213 0 0.307087 0 0.314961 
0 0.322835 0 0.330709 0 0.338583 0 0.346457 0 
0.354331 0 0.362205 0 0.370079 0 0.377953 0 0.385827 
0 0.393701 0 0.401575 0 0.409449 0 0.417323 0 
0.425197 0 0.433071 0 0.440945 0 0.448819 0 0.456693 
0 0.464567 0 0.472441 0 0.480315 0 0.488189 0 
0.496063 0 0.503937 0 0.511811 0 0.519685 0 0.527559 
0 0.535433 0 0.543307 0 0.551181 0 0.559055 0 
0.566929 0 0.574803 0 0.582677 0 0.590551 0 0.598425 
0 0.606299 0 0.614173 0 0.622047 0 0.629921 0 
0.637795 0 0.645669 0 0.653543 0 0.661417 0 0.669291 
0 0.677165 0 0.685039 0 0.692913 0 0.700787 0 
0.708661 0 0.716535 0 0.724409 0 0.732283 0 0.740157 
0 0.748031 0 0.755906 0 0.76378 0 0.771654 0 
0.779528 0 0.787402 0 0.795276 0 0.80315 0 0.811024 
0 0.818898 0 0.826772 0 0.834646 0 0.84252 0 
0.850394 0 0.858268 0 0.866142 0 0.874016 0 0.88189 
0 0.889764 0 0.897638 0 0.905512 0 0.913386 0 
0.92126 0 0.929134 0 0.937008 0 0.944882 0 0.952756 
0 0.96063 0 0.968504 0 0.976378 0 0.984252 0 
0.992126 0 1 0 
FIELD FieldData 7
Curvature 1 128 double
0 0.038411696596 0.071012107517 0.1000053608 0.12365539374 0.14038517618 0.14918377186 0.14996500331 0.14367095024 
0.13207383169 0.11745544907 0.10240627991 0.08989585802 0.083258652063 0.085197038315 0.095940049409 0.11334185331 0.13464136455 
0.15727760235 0.17874276479 0.19651669091 0.20828508531 0.21253253465 0.20903460627 0.19899032145 0.18469775619 0.16897168288 
0.15472716361 0.14471861972 0.14142110954 0.14692716863 0.16289715791 0.19105252408 0.23420119826 0.29701083236 0.38608431525 
0.50754882022 0.65843841353 0.81008377809 0.90132199043 0.87908731291 0.75760334698 0.60054583715 0.4578563183 0.34616826527 
0.26335102748 0.2022517815 0.15650990627 0.12197228553 0.096809571203 0.081622862157 0.078355054547 0.087236074858 0.10538534472 
0.12950878953 0.15721717587 0.18654691811 0.21531803765 0.24084268609 0.26019907942 0.2708636737 0.27159608227 0.26289020728 
0.246744744 0.225898594 0.20298306104 0.17995592657 0.15805302211 0.13781783475 0.11929804014 0.10231725643 0.086512461836 
0.071526181219 0.057041371998 0.043005880144 0.03003082099 0.021317898029 0.024203435484 0.037371718117 0.054821959268 0.074345200745 
0.095214526924 0.11700754217 0.13928155651 0.16151180248 0.18295297926 0.2027195288 0.21955631906 0.23221169096 0.23943804267 
0.24033212633 0.23468864334 0.22296353742 0.20622546761 0.18594605548 0.16359857448 0.14046313565 0.11748104942 0.095305647429 
0.07438643386 0.055078293073 0.038026637601 0.025090747562 0.021509204491 0.0288297698 0.040489920628 0.052891989289 0.064979735053 
0.076391198171 0.086927680978 0.09654241684 0.10512231675 0.11271078351 0.11936794006 0.12533201647 0.13090149582 0.13628597105 
0.14161434877 0.14647989271 0.14988194395 0.1502073866 0.14569044927 0.13485526176 0.11708409402 0.092795274574 0.063343202677 
0.030482125153 0 
Torsion 1 128 double
0 0 -0.0023586726372 -0.004504116258 -0.0082684452201 -0.014662771114 -0.025293360555 -0.042723632669 -0.071059987857 
-0.11679048909 -0.18936693041 -0.29854050906 -0.43786115678 -0.54687579484 -0.53030649655 -0.39922942973 -0.2512386095 -0.13621506755 
-0.055884926072 0.00034163366815 0.041947581566 0.075732060784 0.10677916699 0.13907157013 0.17622616517 0.22152502639 0.27703240654 
0.34050331016 0.40058736773 0.43566249517 0.42670648137 0.37665279138 0.3070713373 0.23845273149 0.18097284047 0.13640663733 
0.1034805121 0.080225442453 0.065473317631 0.058408152161 0.058421252382 0.06519740887 0.078272162468 0.097731017318 0.12496930181 
0.16288143516 0.21760528583 0.2994722021 0.42477760465 0.60649554026 0.80034273955 0.8483279517 0.69467046387 0.4996979244 
0.35658351055 0.26481494501 0.20640655681 0.1678389819 0.14126380688 0.12215437143 0.10757550436 0.09594547073 0.086272667547 
0.077631935476 0.06930348769 0.061085532804 0.053106895503 0.04550804023 0.038985547292 0.034953042968 0.035621080113 0.044762719965 
0.070444095693 0.13127358766 0.2782328767 0.6678057344 1.472215062 1.1766705816 0.45143874972 0.15020766654 0.018895106371 
-0.051947039193 -0.097143123859 -0.12931882726 -0.1534828549 -0.1713079726 -0.18294862339 -0.18854972059 -0.18803689606 -0.18168436911 
-0.17019239164 -0.1541881148 -0.13501142368 -0.11330399109 -0.089122864165 -0.062888184124 -0.033627962637 0.00092299973168 0.046453109714 
0.11586373132 0.24226276237 0.52175288104 1.1654587328 1.5017189294 0.78000149009 0.36908945528 0.20597300209 0.13536336008 
0.10459101544 0.095339049284 0.098837185347 0.11221623554 0.1331459191 0.15944092701 0.18804575497 0.21400497031 0.23299139411 
0.2406271492 0.23471329745 0.21654761117 0.19015224985 0.15993940023 0.12921742649 0.099876573635 0.073066967845 0.049470279111 
0 0 
Abscissas 1 128 double
0 0.50298294534 1.0059658907 1.5089473998 2.0119287866 2.5149138688 3.0178990077 3.5208833328 4.0238676135 
4.5268465033 5.0298250224 5.5328093611 6.0357942143 6.5387795077 7.0417648489 7.5447453886 8.0477253027 8.5507096813 
9.0536947414 9.5566767339 10.059658189 10.562625171 11.065589293 11.568583386 12.071584016 12.574564769 13.077540734 
13.580524461 14.083510256 14.586492101 15.089472785 15.59245453 16.095436618 16.598419938 17.101403694 17.604386452 
18.107368825 18.610354914 19.113342532 19.616324763 20.119304618 20.622277899 21.12524837 21.628233506 22.131225375 
22.634209364 23.13718951 23.640170999 24.143153195 24.646136795 25.149121192 25.652103725 26.155085124 26.658067223 
27.161049781 27.664039238 28.167033538 28.670016129 29.172989934 29.675973178 30.178963957 30.681950707 31.184934058 
31.687917005 32.190899593 32.69388397 33.196870052 33.699847586 34.20281642 34.705805343 35.208816145 35.71180865 
36.214779837 36.717750129 37.220719303 37.723692293 38.226670388 38.729659797 39.232665453 39.735659487 40.2386356 
40.741617316 41.244608319 41.747588988 42.25055123 42.753527125 43.256529175 43.759525913 44.262511741 44.765493076 
45.26846453 45.771446032 46.274451206 46.777444136 47.280406057 47.783373095 48.286354187 48.78933604 49.292320178 
49.795303573 50.298284527 50.801267701 51.304258925 51.807248599 52.310232035 52.813214288 53.316191217 53.819169718 
54.32215618 54.825141733 55.328122036 55.831102542 56.334084392 56.837065662 57.340042427 57.843019637 58.346000982 
58.848984254 59.35198947 59.854993579 60.357981514 60.860968088 61.363929323 61.866891069 62.36988509 62.872878549 
63.375865336 63.878852123 
ParallelTransportNormals 3 128 double
-0.19985801275 0 0.97982486942 -0.16599267538 -0.01467274674 0.98525646647 -0.13212733801 -0.029345493481 0.99068806351 
-0.091359019072 -0.038340988148 0.99423589144 -0.050003005315 -0.046853142158 0.99762334209 -0.0041862153423 -0.046287575628 0.99782675395 
0.041699083898 -0.045582592108 0.99798126487 0.078806504273 -0.037861445614 0.99545402566 0.11543373884 -0.029756486365 0.99278008377 
0.1405539275 -0.020520369362 0.9895078899 0.16488272578 -0.011206457645 0.9861945516 0.1761377396 -0.0058689095378 0.98428137455 
0.18623713526 -0.0008828402264 0.98249196057 0.18043320187 -0.0041518245119 0.98353962682 0.17289822372 -0.0083193544593 0.98489610344 
0.1428992239 -0.025515768003 0.98866989674 0.10997334633 -0.044409738196 0.99275864658 0.042713574067 -0.083459097581 0.99206760349 
-0.029787846789 -0.12558551735 0.99064684433 -0.13622682544 -0.19077143552 0.96266364019 -0.24861757589 -0.2600013946 0.93002206871 
-0.34888844361 -0.33205008095 0.86509716387 -0.4467638289 -0.40465588587 0.79379149119 -0.50258123108 -0.45814046621 0.72717652196 
-0.54922426647 -0.50745401613 0.66158476475 -0.57016140609 -0.53765716784 0.61942591926 -0.58490811015 -0.56325819677 0.58291013444 
-0.59052732619 -0.57670544889 0.56426114795 -0.59371376687 -0.58691332028 0.55037425008 -0.59439555638 -0.58891892336 0.54760207 
-0.59434099855 -0.58851312542 0.54809752771 -0.59425122084 -0.57975377698 0.55721706306 -0.59415006993 -0.56829690168 0.56912148386 
-0.59616861507 -0.54278262179 0.59035333763 -0.5989354367 -0.51230592036 0.61487787989 -0.61127388751 -0.4429640017 0.64952007039 
-0.62730218311 -0.35863961595 0.68806259498 -0.67519076081 -0.20232489435 0.68358968691 -0.73617179887 -0.016426925028 0.66144029232 
-0.79975721325 0.11574604721 0.56287258077 -0.86449155933 0.22421800837 0.43059260349 -0.90239050187 0.2651069776 0.32705630672 
-0.92881744678 0.27710456377 0.2358077862 -0.94550755305 0.27423846205 0.1645719033 -0.95772734531 0.26454824063 0.10252409241 
-0.96560416881 0.25046873468 0.048938131024 -0.97136302246 0.23424867171 -0.00052117344684 -0.97421489867 0.21655785322 -0.045555385489 
-0.97553706985 0.19809309611 -0.088261032467 -0.97452466882 0.179804059 -0.12804813068 -0.97219016072 0.16161453506 -0.1661824062 
-0.96804553927 0.14516898006 -0.20150636548 -0.96279847025 0.12978558746 -0.23511870468 -0.95666940326 0.1176993168 -0.2649013881 
-0.94996322448 0.10777042972 -0.29217823865 -0.94449405511 0.10212972286 -0.31193119645 -0.93989302209 0.099498471734 -0.32640386726 
-0.93957239332 0.097912213862 -0.32795544582 -0.94246365034 0.097110087304 -0.31981142785 -0.94918160493 0.089267937887 -0.30033626398 
-0.95895500324 0.075804650851 -0.2718136962 -0.96785878616 0.054798717699 -0.24267904466 -0.97602904773 0.027430555701 -0.21302809991 
-0.9816090473 -0.00089066862866 -0.18825044673 -0.98487382773 -0.030063755875 -0.16782862237 -0.98651908769 -0.056946967803 -0.15148379675 
-0.98662166855 -0.08164895212 -0.13902252853 -0.98602184554 -0.10381891009 -0.12903385488 -0.98470711297 -0.12341176121 -0.12156179818 
-0.98316486545 -0.14088182096 -0.11555651632 -0.98137485717 -0.15604018922 -0.11114853271 -0.97963201207 -0.16921959777 -0.10767924842 
-0.97794411805 -0.18009326754 -0.10530366774 -0.97650060631 -0.1889431222 -0.10352506618 -0.97536211687 -0.19526698042 -0.10249157574 
-0.9744861454 -0.20004796675 -0.10174611977 -0.97396149139 -0.20276418848 -0.10138612897 -0.97356671145 -0.204799667 -0.10111465927 
-0.97335843684 -0.20585756586 -0.10097031007 -0.97298862719 -0.20774071174 -0.10064837637 -0.97236974964 -0.21089629074 -0.10005262842 
-0.971048612 -0.21749731471 -0.0982506257 -0.96856322299 -0.22981041622 -0.094448817213 -0.96407790874 -0.24963951681 -0.085783754034 
-0.95602637669 -0.28287096319 -0.068446653997 -0.94283873571 -0.32505415652 -0.039411399375 -0.91981136047 -0.38438706616 0.012035126875 
-0.88681626503 -0.4457438349 0.077505619632 -0.83335197708 -0.51125669556 0.17177500165 -0.76961778311 -0.56921911451 0.26980233364 
-0.68329861923 -0.61057704859 0.37609392693 -0.59477316545 -0.64305547201 0.47429625146 -0.50105029184 -0.65461617961 0.55344245553 
-0.41242058174 -0.66173701156 0.62304066272 -0.33669022434 -0.65761305983 0.66845685045 -0.26744630784 -0.65243780592 0.70800755736 
-0.2160144214 -0.64437563354 0.7314514158 -0.16994549324 -0.63665472241 0.75187397403 -0.13994655839 -0.62995639352 0.76324326881 
-0.11415709411 -0.62407584134 0.77293375657 -0.10220579986 -0.62088363987 0.77710535148 -0.093723444077 -0.61863968942 0.78005956266 
-0.097823114914 -0.61983509653 0.77859825748 -0.10481807512 -0.62189641203 0.77595176973 -0.12346816767 -0.62744348517 0.7685342702 
-0.14431234499 -0.63357949235 0.75982905837 -0.17502855064 -0.6423653395 0.74532993535 -0.20702816841 -0.65136039486 0.72954351735 
-0.24553457715 -0.66141611817 0.70723062261 -0.28451687519 -0.67138733325 0.68376367416 -0.32624328696 -0.68087124971 0.653642122 
-0.36810368033 -0.69014539372 0.62238306009 -0.4108536591 -0.69802673056 0.58357137789 -0.45365269938 -0.70559973282 0.54348436946 
-0.49683272092 -0.71077840011 0.4934939694 -0.53994754201 -0.71542754821 0.44218580214 -0.58245791032 -0.71516769037 0.37866102966 
-0.62465786238 -0.71405980269 0.3143917316 -0.66332369418 -0.70329701015 0.24164593513 -0.70166537412 -0.69155070935 0.16905381469 
-0.73527162068 -0.66543664399 0.098706699409 -0.76835638853 -0.63905655869 0.029677678099 -0.79172588549 -0.60772045942 -0.014794942597 
-0.81499622847 -0.57641674309 -0.058940847546 -0.83200329381 -0.54715856567 -0.082449038863 -0.84768680035 -0.5201773783 -0.10412772738 
-0.84768680035 -0.5201773783 -0.10412772738 -0.84768680035 -0.5201773783 -0.10412772738 
FrenetTangent 3 128 double
-0.97025631289 0.22593275379 -0.086931456151 -0.97025631289 0.22593275379 -0.086931456151 -0.97627129197 0.20184438464 -0.078442392007 
-0.98429402664 0.16406981928 -0.06516412763 -0.99227511203 0.11446769557 -0.047825189219 -0.99807004267 0.055676544941 -0.027501132045 
-0.99994362692 -0.0090219374608 -0.0055988953277 -0.9969713921 -0.076055042494 0.016238037039 -0.98919535239 -0.1420434409 0.036279687235 
-0.97749058679 -0.20425034922 0.052857805346 -0.96322530082 -0.26084848797 0.064459958048 -0.94786062644 -0.31095762257 0.069753779922 
-0.93260995018 -0.35450515292 0.067563136303 -0.91820911111 -0.39199730848 0.056834306754 -0.90479186275 -0.4242758707 0.036628822712 
-0.89184235549 -0.45230427192 0.0061691615933 -0.87820725569 -0.4769943925 -0.035048046795 -0.8621730617 -0.49907616531 -0.087066600399 
-0.84163419722 -0.51902057002 -0.14922977574 -0.81438974716 -0.53702546012 -0.21993861623 -0.77857163343 -0.55308645669 -0.29651573827 
-0.73313490456 -0.5671497336 -0.37530573058 -0.67824630157 -0.57930718489 -0.45208974766 -0.61536786228 -0.58996553534 -0.52274569456 
-0.54696002687 -0.59990034359 -0.58391292738 -0.47590657079 -0.61018092987 -0.63339732293 -0.4049056977 -0.62201317633 -0.67018727564 
-0.33603118027 -0.63657907246 -0.69415425548 -0.27053871764 -0.65492073891 -0.70561152769 -0.20888262244 -0.67787657208 -0.70487687086 
-0.15083168181 -0.70604783664 -0.69191491972 -0.09561901088 -0.73975809102 -0.66604427145 -0.042101756149 -0.77895083931 -0.62567006647 
0.011097225709 -0.82295094619 -0.56800404202 0.065406456513 -0.86995847509 -0.4887680913 0.12195126514 -0.91606048436 -0.38204852824 
0.18083946164 -0.95355882409 -0.24087892833 0.23981394722 -0.96896572753 -0.05995573032 0.29258496697 -0.94314407665 0.1577126748 
0.32902981486 -0.85898398579 0.39228292481 0.34036232557 -0.71682941204 0.60853026332 0.32608986772 -0.5404999552 0.77558055455 
0.29372570051 -0.36144306608 0.88492040481 0.25225768148 -0.20071810401 0.94661412669 0.20781553895 -0.066100947503 0.97593205015 
0.16342425519 0.042358738079 0.98564610795 0.12020120915 0.12733977566 0.98454875494 0.078368771762 0.19179567119 0.97830095376 
0.037828789699 0.23812616407 0.97049725021 -0.0015561201522 0.26802025361 0.96341202097 -0.039837173358 0.28252198885 0.95843326603 
-0.076912795635 0.28215432333 0.95628100457 -0.11248957517 0.2670424742 0.95709686681 -0.14605660695 0.23704805403 0.96045597903 
-0.17685249184 0.19193885463 0.96534070266 -0.20385489133 0.13162023024 0.97011303376 -0.22580213697 0.056456313373 0.97253590145 
-0.24127962538 -0.032345139636 0.96991645739 -0.24891400518 -0.13236310489 0.95943828696 -0.24766709706 -0.23979605118 0.93870062473 
-0.23716015027 -0.34969165692 0.90635026795 -0.2179096511 -0.45664301091 0.86255002437 -0.19130809539 -0.55576350712 0.80902913223 
-0.15934486408 -0.64352844136 0.74865236221 -0.12420602247 -0.71815517239 0.68470870621 -0.087912629177 -0.77946618942 0.62024497513 
-0.05209732699 -0.82842176682 0.55767664894 -0.017935606879 -0.86659961747 0.49868167904 0.013809807916 -0.8957770685 0.4442890194 
0.042698374483 -0.91765832776 0.39506966767 0.068532671678 -0.93374287994 0.35132251148 0.091288738842 -0.94527947381 0.31323007928 
0.11106748347 -0.95326757802 0.28097141993 0.1280748364 -0.9584773477 0.25479012978 0.14261822692 -0.96147040453 0.23502064283 
0.15510978244 -0.96261170293 0.22208031156 0.16607321274 -0.96206710688 0.21644068441 0.17616345859 -0.95978807887 0.21857099423 
0.18616844488 -0.95549066153 0.22886438312 0.19701987166 -0.94863054854 0.2475545446 0.20978807366 -0.93839145469 0.2746096173 
0.22563626296 -0.92369999134 0.30962332412 0.24577190097 -0.90327137784 0.35170582974 0.27134546501 -0.87570898948 0.39938127692 
0.30330378774 -0.83965720743 0.45053588797 0.3422188062 -0.79400556937 0.50243551277 0.38810300196 -0.73812130242 0.55186321021 
0.44024340963 -0.67209053981 0.59538226928 0.49713685917 -0.59690176403 0.6297326634 0.55658328019 -0.51448458428 0.65231944992 
0.61593137163 -0.42759029436 0.66166085392 0.67248265971 -0.33945313009 0.65767670239 0.72390941772 -0.25333094421 0.64169976441 
0.76857817861 -0.17207948024 0.61617873693 0.80568410836 -0.097823203866 0.58421206623 0.83518522691 -0.031828126574 0.549046999 
0.85761708381 0.025417597575 0.51366028004 0.87385365629 0.07402147113 0.48052118496 0.88489493277 0.11446891224 0.45150617503 
0.89170772615 0.14744274839 0.42792285178 0.89512693705 0.17367642647 0.41059014292 0.89580708343 0.19386327746 0.39993336812 
0.89420673514 0.20860661443 0.39607776413 0.89059133307 0.21841480072 0.39892612385 0.88505752573 0.22369179481 0.40820969745 
0.87756127918 0.2247502691 0.42352510884 0.86795102249 0.22182448089 0.44435900151 0.8560155278 0.2150533392 0.47009517916 
0.84152391292 0.204495134 0.50001924379 0.82427811672 0.19011579832 0.53331188766 0.80416367165 0.17176234711 0.56905051209 
0.78119386936 0.14917943263 0.60620263555 0.75555518399 0.12201296644 0.64362193869 0.72762816876 0.089834204232 0.68006401447 
0.69798667867 0.052198292481 0.71420580694 0.66736035678 0.0087220116615 0.74468387971 0.63657199542 -0.040762202195 0.77013929748 
0.60645225886 -0.096074355767 0.78929422644 0.57774811663 -0.15652895485 0.80106541557 0.55105547698 -0.22076775522 0.80473564576 
0.52679371421 -0.28668149885 0.80018879078 0.50523254885 -0.35150049173 0.78815447464 0.48655732474 -0.41207991858 0.77035842986 
0.47093571149 -0.46532672365 0.74946020302 0.45855660509 -0.5086308898 0.72871150524 0.44962980584 -0.54013724681 0.71139636793 
0.44435344461 -0.55875491989 0.70024492555 0.44435344461 -0.55875491989 0.70024492555 
FrenetNormal 3 128 double
-0.24198957991 -0.91501015491 0.32279631291 -0.24198957991 -0.91501015491 0.32279631291 -0.21644555862 -0.92083236379 0.32437490341 
-0.17639677369 -0.92876016686 0.32601952501 -0.12383335852 -0.93705632263 0.32648238474 -0.061591640155 -0.94401075785 0.3241144226 
0.0067835873507 -0.9484648093 0.31680986167 0.077404587423 -0.9502321316 0.30177379925 0.14653187346 -0.95023088869 0.27493575294 
0.21095362399 -0.95009007447 0.22984216089 0.26790405156 -0.95073816966 0.15596266189 0.31398228058 -0.94869215451 0.037394163421 
0.34263935446 -0.92857700199 -0.14262897374 0.34356881184 -0.85960545679 -0.37820487859 0.3156130083 -0.72582845464 -0.61119676327 
0.28151605327 -0.56565827644 -0.7750996233 0.26709432374 -0.42832580306 -0.8632483007 0.28084501846 -0.32780519307 -0.90203649095 
0.32011725148 -0.25691134966 -0.91187800923 0.37922195202 -0.20559786442 -0.90217527635 0.45230656673 -0.16702781974 -0.87608246023 
0.53369764839 -0.13774901906 -0.83438122453 0.61817467323 -0.11718275892 -0.77725689086 0.70119552731 -0.10677770182 -0.70492790758 
0.77900392366 -0.10929170417 -0.61742061055 0.84827020027 -0.12825581348 -0.51379773612 0.9048397389 -0.1670934733 -0.39159266858 
0.94185073541 -0.22749887805 -0.24730841614 0.94870545894 -0.30592598205 -0.079795022968 0.91489815178 -0.39005883554 0.10399748405 
0.84027477569 -0.46027560922 0.28650421445 0.7406845938 -0.49989140624 0.44888184913 0.63814073398 -0.50281418527 0.58305599965 
0.54708495088 -0.47048308887 0.69234653144 0.47083549526 -0.40495624408 0.78378847707 0.40519839043 -0.30543416766 0.86169845864 
0.34253607452 -0.16851874191 0.92426753231 0.27392077792 0.0082867785631 0.96171655737 0.19207006932 0.21953255251 0.95651165537 
0.095374134874 0.44351743022 0.89117678576 -0.0087151891345 0.64473720768 0.76435461568 -0.10827067914 0.7936738783 0.59863113429 
-0.19594736953 0.8833295381 0.42583277879 -0.27216327208 0.9240436384 0.26845950843 -0.34257384244 0.92960814009 0.13591125175 
-0.41445024783 0.90958958204 0.02962742506 -0.49583573852 0.86688282876 -0.0515856725 -0.59484227173 0.79648630918 -0.10849991266 
-0.71813324431 0.6818205841 -0.13930303128 -0.86088201624 0.48982834337 -0.1376602635 -0.97865184996 0.18252133816 -0.094480250297 
-0.97809459552 -0.20742692926 -0.017465143394 -0.83771594034 -0.5435099405 0.053187854634 -0.65051993379 -0.75445727619 0.087281350437 
-0.48147432118 -0.87230597228 0.085233612877 -0.34156878341 -0.93821566656 0.055516927351 -0.22443817792 -0.97447812649 0.0044592927464 
-0.12262075414 -0.99041798639 -0.063532376652 -0.031230996121 -0.98900529687 -0.14454462164 0.052430580925 -0.97078361268 -0.23415851796 
0.12919261329 -0.93603338339 -0.32733892809 0.19871505982 -0.88603450057 -0.41887371462 0.26048391099 -0.82344459175 -0.50407056692 
0.31403328051 -0.75199272905 -0.57956020756 0.35924274366 -0.67578536768 -0.64362938712 0.39628247604 -0.59862992784 -0.6961339014 
0.42587869143 -0.52353894953 -0.73792567953 0.44883436041 -0.45266148972 -0.77048380427 0.46624244015 -0.38730170011 -0.79537122156 
0.4794538839 -0.32810147783 -0.81392468538 0.49066445201 -0.27506944462 -0.82679211182 0.50292161864 -0.22771944594 -0.83379475859 
0.52165149381 -0.18472101762 -0.83292128359 0.55674716033 -0.14312196084 -0.81825955771 0.62857229495 -0.095437485804 -0.77187340693 
0.77605608666 -0.020372750109 -0.63033475345 0.9759233271 0.12887698249 -0.17596699408 0.81796664971 0.26626017603 0.50993732814 
0.54977471922 0.2943622633 0.78172796806 0.42686802429 0.31031613616 0.84940425327 0.38549040852 0.33749184934 0.85877610387 
0.38385651397 0.37640376941 0.84319296668 0.40361728479 0.42524735162 0.81009738758 0.43463417117 0.48171743477 0.76094773164 
0.4705489235 0.54311565713 0.69542008424 0.50623587019 0.60628211425 0.61330843927 0.53724558545 0.66772985852 0.51527081904 
0.55967287871 0.72392628103 0.40335717234 0.57062987231 0.77165464482 0.2809460054 0.56837762869 0.80847649846 0.15268471646 
0.55267813754 0.8330528928 0.023869522022 0.52469777272 0.84537352317 -0.10017910772 0.4866460398 0.8468087075 -0.21468731877 
0.44162053969 0.83956779278 -0.31638144737 0.39240939717 0.82695000479 -0.40270157013 0.34160624777 0.81241034158 -0.47254058914 
0.29095714581 0.7995917928 -0.52535407506 0.2411422479 0.79222143011 -0.56056723233 0.19134658229 0.79443128384 -0.5764246878 
0.13808326054 0.8117586158 -0.56743366382 0.07266342821 0.8518411837 -0.5187356012 -0.027465688586 0.92228017031 -0.38554496937 
-0.21167040659 0.9766589627 -0.036509033764 -0.42844190128 0.69719682087 0.57476441277 -0.45336199783 0.21543629145 0.8648988977 
-0.42391014501 -0.049027492872 0.90437630105 -0.40964644081 -0.18611517466 0.89305707281 -0.41046919288 -0.2700373943 0.87097350556 
-0.42134458668 -0.33081554235 0.84441092853 -0.43816575834 -0.38235028502 0.81352260433 -0.45756651699 -0.43219464778 0.77707185573 
-0.4768720453 -0.48408620225 0.73365768666 -0.49293511111 -0.5412029928 0.68125934622 -0.5030377737 -0.60414901333 0.61802667249 
-0.50418351624 -0.67243288355 0.54187913695 -0.49436377303 -0.74266021357 0.4517303035 -0.47294332157 -0.80942342359 0.3480780601 
-0.44120808567 -0.86648646325 0.23353079913 -0.402773801 -0.90829640965 0.11300839544 -0.36264383306 -0.93189900949 -0.0073271043149 
-0.32545482306 -0.93769480464 -0.12168652965 -0.29429020093 -0.92872196246 -0.22554111393 -0.27024726062 -0.9095152199 -0.31582983217 
-0.25318996034 -0.88511949962 -0.39045910845 -0.24202452601 -0.86048904676 -0.44831097379 -0.23552251641 -0.83995228212 -0.48888578219 
-0.23236013201 -0.82678761007 -0.51228021324 -0.23236013201 -0.82678761007 -0.51228021324 
FrenetBinormal 3 128 double
-0.0066129052717 0.33423166693 0.94246775133 -0.0066129052717 0.33423166693 0.94246775133 -0.0067590404833 0.33365641339 0.94267052207 
-0.0070318815025 0.33239381291 0.9431144712 -0.0074432097124 0.3298826987 0.94399258669 -0.0079157932875 0.32518273542 0.94561806709 
-0.0081685939483 0.31675402153 0.94847254252 -0.0075215145771 0.3021167433 0.95324126025 -0.0045787409306 0.27728129955 0.9607778703 
0.0032743345894 0.23581909431 0.97179145576 0.020601917998 0.16749626584 0.98565742624 0.054546863604 0.057345906064 0.99686312337 
0.1133002807 -0.10986741068 0.98746756831 0.19711037468 -0.32774467014 0.9239756119 0.28590228069 -0.54144532502 0.7906306634 
0.3540705081 -0.68952995576 0.63180892317 0.39675261598 -0.76747205549 0.50356132273 0.42164402912 -0.80216378416 0.4227878618 
0.43494462104 -0.81523874191 0.38237281587 0.43927218309 -0.81812784657 0.3710886361 0.43502296641 -0.81620896764 0.38020775877 
0.42152109298 -0.81201378525 0.40367509304 0.39729337747 -0.80664204363 0.43759180256 0.36006558646 -0.8003369225 0.47938876075 