# vtk DataFile Version 4.2
vtk output
ASCII
DATASET POLYDATA
POINTS 128 float
0 0 0 -0.310788 0.128374 0.00291628 -0.93287 0.345898 0.00500114 
-1.47738 0.444684 -0.00166601 -1.94521 0.438319 -0.0144413 -2.43613 0.39541 -0.0281945 
-2.94215 0.318109 -0.0415667 -3.43242 0.194503 -0.0541253 -3.90629 0.0312996 -0.0649772 
-4.3705 -0.160699 -0.0733883 -4.8251 -0.377029 -0.0800541 -5.26844 -0.615047 -0.0864612 
-5.70079 -0.871528 -0.0959211 -6.12247 -1.14393 -0.115078 -6.53089 -1.4344 -0.165491 
-6.91851 -1.74497 -0.273436 -7.25514 -2.06766 -0.46333 -7.50816 -2.39162 -0.75138 
-7.67775 -2.70991 -1.10937 -7.77708 -3.01856 -1.49646 -7.82536 -3.32296 -1.89355 
-7.84245 -3.63139 -2.29041 -7.83783 -3.94799 -2.68131 -7.81674 -4.27532 -3.0624 
-7.78348 -4.6163 -3.43073 -7.74197 -4.97384 -3.7833 -7.69631 -5.34974 -4.11411 
-7.65062 -5.74623 -4.41588 -7.6089 -6.17246 -4.68202 -7.57723 -6.63803 -4.89973 
-7.57918 -7.13092 -5.00482 -7.64231 -7.62414 -4.91964 -7.75911 -8.05235 -4.65664 
-7.90549 -8.34333 -4.27214 -8.06202 -8.5158 -3.82008 -8.21274 -8.62665 -3.34895 
-8.35175 -8.7006 -2.87271 -8.47783 -8.74673 -2.38899 -8.58814 -8.77474 -1.89861 
-8.67894 -8.7945 -1.40395 -8.74607 -8.81428 -0.905978 -8.78507 -8.84165 -0.405109 
-8.79038 -8.88596 0.0961547 -8.75616 -8.9576 0.593752 -8.6796 -9.06684 1.07951 
-8.56043 -9.22335 1.5431 -8.40705 -9.43027 1.97651 -8.23307 -9.68651 2.37374 
-8.05225 -9.98764 2.73471 -7.87806 -10.3272 3.06316 -7.71979 -10.6986 3.36369 
-7.58373 -11.0955 3.64139 -7.47219 -11.512 3.90083 -7.38461 -11.9423 4.14619 
-7.31835 -12.3822 4.38095 -7.26919 -12.8282 4.6081 -7.2322 -13.2779 4.83004 
-7.20184 -13.7297 5.04875 -7.17227 -14.1824 5.26573 -7.13733 -14.635 5.48212 
-7.09045 -15.0864 5.6987 -7.02464 -15.5353 5.91598 -6.93289 -15.9793 6.134 
-6.8082 -16.4151 6.35244 -6.64523 -16.8386 6.57037 -6.44028 -17.2444 6.78637 
-6.19274 -17.6279 6.99883 -5.90495 -17.9851 7.20605 -5.58074 -18.3138 7.40674 
-5.22532 -18.6132 7.60006 -4.84357 -18.8835 7.78552 -4.43999 -19.126 7.96304 
-4.01838 -19.3418 8.13271 -3.58176 -19.5319 8.29488 -3.13268 -19.6972 8.45009 
-2.67328 -19.8379 8.59909 -2.20551 -19.9542 8.74296 -1.73119 -20.0458 8.88315 
-1.25225 -20.1125 9.02166 -0.770762 -20.1542 9.16114 -0.288977 -20.1713 9.30469 
0.190679 -20.1652 9.45602 0.665839 -20.138 9.61879 1.13424 -20.0936 9.79664 
1.59391 -20.0365 9.99272 2.0433 -19.9725 10.2095 2.48111 -19.9078 10.4486 
2.90648 -19.8487 10.7105 3.31883 -19.8016 10.9948 3.71806 -19.7728 11.2996 
4.10426 -19.7682 11.6221 4.47768 -19.7929 11.9584 4.83823 -19.8523 12.3045 
5.18518 -19.9512 12.6555 5.51682 -20.0944 13.0063 5.82994 -20.2855 13.3512 
6.12024 -20.5267 13.6849 6.38182 -20.817 14.0026 6.60906 -21.1535 14.3008 
6.79728 -21.5294 14.5783 6.94346 -21.9372 14.8349 7.04778 -22.3686 15.0728 
7.1119 -22.8161 15.294 7.13978 -23.2743 15.5004 7.13583 -23.7388 15.6935 
7.10489 -24.2072 15.8743 7.05177 -24.6781 16.0429 6.98118 -25.151 16.1989 
6.8978 -25.6262 16.3412 6.80626 -26.1043 16.4676 6.71128 -26.5863 16.5755 
6.61785 -27.0731 16.661 6.53115 -27.5652 16.7196 6.45671 -28.0622 16.7458 
6.39988 -28.5624 16.7338 6.36535 -29.0614 16.678 6.35621 -29.554 16.5744 
6.37125 -30.0342 16.4226 6.40732 -30.4965 16.225 6.45777 -30.9376 15.9895 
6.51428 -31.3579 15.724 6.56537 -31.768 15.4314 6.60256 -32.1731 15.1183 
6.62995 -32.5525 14.8077 6.64296 -32.907 14.5077 6.59523 -33.3376 14.1611 
6.47379 -33.8554 13.7713 6.4004 -34.1191 13.5778 
LINES 1 129
128 0 1 2 3 4 5 6 7 8 9 10 11 12 13 14 15 16 17 18 19 20 21 22 23 24 25 26 27 28 29 30 31 32 33 34 35 36 37 38 39 40 41 42 43 44 45 46 47 48 49 50 51 52 53 54 55 56 57 58 59 60 61 62 63 64 65 66 67 68 69 70 71 72 73 74 75 76 77 78 79 80 81 82 83 84 85 86 87 88 89 90 91 92 93 94 95 96 97 98 99 100 101 102 103 104 105 106 107 108 109 110 111 112 113 114 115 116 117 118 119 120 121 122 123 124 125 126 127 

CELL_DATA 1
FIELD FieldData 2
Length 1 1 double
59.017539673 
Tortuosity 1 1 double
0.58329571349 
POINT_DATA 128
SCALARS MaximumInscribedSphereRadius float
LOOKUP_TABLE default
1.24 1.24 1.24 1.25325 1.26765 1.30923 1.35159 1.4277 1.50556 
1.61324 1.72305 1.61374 1.48432 1.43332 1.39118 1.4581 1.5396 1.55 
1.55 1.55 1.55 1.55 1.55 1.5676 1.58888 1.77146 1.99186 
2.19151 2.38575 2.44864 2.4741 2.41319 2.32623 2.44971 2.62961 2.79577 
2.95787 2.86247 2.68349 2.54168 2.41308 2.33916 2.28647 2.37615 2.5258 
2.5679 2.56132 2.5017 2.41642 2.55548 2.81105 2.88453 2.85636 2.73664 
2.56194 2.43114 2.32872 2.25333 2.19675 2.17182 2.17056 2.20511 2.26842 
2.32796 2.38424 2.33147 2.1784 2.07911 2.03256 2.1009 2.28953 2.35353 
2.27797 2.16858 2.01863 1.94459 1.96814 1.98831 2.00383 1.97834 1.89207 
1.87155 1.95573 2.08307 2.28441 2.42777 2.4639 2.47623 2.44104 2.38679 
2.29138 2.21646 2.1894 2.18607 2.24284 2.33307 2.51514 2.6616 2.70212 
2.71673 2.6476 2.56638 2.44237 2.3136 2.16628 2.01561 1.85043 1.74 
1.89777 2.08294 2.42102 2.73048 2.85603 2.97837 3.07669 3.17446 3.2673 
3.32903 3.05975 2.78573 2.44861 2.11828 1.91285 1.71087 1.62701 1.55 
1.55 1.55 
TEXTURE_COORDINATES TCoords 2 float
0 0 0.00787402 0 0.015748 0 0.023622 0 0.0314961 
0 0.0393701 0 0.0472441 0 0.0551181 0 0.0629921 0 
0.0708661 0 0.0787402 0 0.0866142 0 0.0944882 0 0.102362 
0 0.110236 0 0.11811 0 0.125984 0 0.133858 0 
0.141732 0 0.149606 0 0.15748 0 0.165354 0 0.173228 
0 0.181102 0 0.188976 0 0.19685 0 0.204724 0 
0.212598 0 0.220472 0 0.228346 0 0.23622 0 0.244094 
0 0.251969 0 0.259843 0 0.267717 0 0.275591 0 
0.283465 0 0.291339 0 0.299213 0 0.307087 0 0.314961 
0 0.322835 0 0.330709 0 0.338583 0 0.346457 0 
0.354331 0 0.362205 0 0.370079 0 0.377953 0 0.385827 
0 0.393701 0 0.401575 0 0.409449 0 0.417323 0 
0.425197 0 0.433071 0 0.440945 0 0.448819 0 0.456693 
0 0.464567 0 0.472441 0 0.480315 0 0.488189 0 
0.496063 0 0.503937 0 0.511811 0 0.519685 0 0.527559 
0 0.535433 0 0.543307 0 0.551181 0 0.559055 0 
0.566929 0 0.574803 0 0.582677 0 0.590551 0 0.598425 
0 0.606299 0 0.614173 0 0.622047 0 0.629921 0 
0.637795 0 0.645669 0 0.653543 0 0.661417 0 0.669291 
0 0.677165 0 0.685039 0 0.692913 0 0.700787 0 
0.708661 0 0.716535 0 0.724409 0 0.732283 0 0.740157 
0 0.748031 0 0.755906 0 0.76378 0 0.771654 0 
0.779528 0 0.787402 0 0.795276 0 0.80315 0 0.811024 
0 0.818898 0 0.826772 0 0.834646 0 0.84252 0 
0.850394 0 0.858268 0 0.866142 0 0.874016 0 0.88189 
0 0.889764 0 0.897638 0 0.905512 0 0.913386 0 
0.92126 0 0.929134 0 0.937008 0 0.944882 0 0.952756 
0 0.96063 0 0.968504 0 0.976378 0 0.984252 0 
0.992126 0 1 0 
FIELD FieldData 7
Curvature 1 128 double
0 0.03419235507 0.062758326665 0.087582562566 0.10750994809 0.12206003164 0.13166941462 0.13775251501 0.14252183515 
0.14854256423 0.1580904245 0.17238498603 0.19103442664 0.21180729019 0.23086235644 0.24349591251 0.24561162952 0.23537920003 
0.21414171016 0.18579252172 0.15549732777 0.12899832604 0.1131278175 0.11518052822 0.13837380471 0.18137624558 0.24378028638 
0.32714293589 0.43074441398 0.54297867976 0.63341055135 0.6620108449 0.61233266039 0.50941567669 0.39363709655 0.29120456933 
0.21037797261 0.15076103987 0.11089024859 0.091464169026 0.091666271535 0.10460606637 0.12211751272 0.139072311 0.15253299448 
0.16091421124 0.16363824615 0.1609262652 0.15365712541 0.14292332831 0.12983299433 0.11514228997 0.099440412423 0.083093413824 
0.066505764865 0.050421445222 0.03688336119 0.030986150213 0.037494004348 0.05217252786 0.069831443477 0.088061628377 0.10556288412 
0.12138463367 0.13468726688 0.14485761026 0.15150474584 0.15457653692 0.15434616208 0.15134677357 0.1462005321 0.13964620348 
0.13220950808 0.12434950166 0.11637852147 0.10846048749 0.10067673459 0.093154767814 0.085885712404 0.079050452868 0.072953712977 
0.067885363821 0.064476152931 0.063364716287 0.06513614756 0.070030879813 0.077939642633 0.088500104338 0.10127852491 0.11579025393 
0.13148466389 0.1477915091 0.16399451877 0.17914207916 0.19226997527 0.20236363075 0.20851759892 0.21018120995 0.20725204554 
0.2000797147 0.18941519041 0.17624657977 0.16166628588 0.14666893656 0.13225728094 0.1194369199 0.1092795667 0.10284190392 
0.10096255598 0.10382414173 0.11060531521 0.11983945312 0.1297102462 0.13830655791 0.14398802975 0.14553138947 0.14226135121 
0.13443464891 0.12295566303 0.10912524821 0.094362133754 0.079758423569 0.06582365817 0.05253542781 0.039459220683 0.026142962323 
0.012414365557 0 
Torsion 1 128 double
0 0 -0.021816055064 -0.035493332742 -0.055480079244 -0.083631862436 -0.12097133098 -0.16578319543 -0.21103309812 
-0.24369496793 -0.25028559589 -0.22691204244 -0.18216500466 -0.12902335785 -0.076288982536 -0.026632415571 0.021953414687 0.074904995299 
0.14111356766 0.2350973967 0.37965614677 0.59511209754 0.8249960329 0.85868869841 0.65880624047 0.43756761029 0.28224744212 
0.18110529231 0.11238416649 0.062289044988 0.022988605249 -0.0115689592 -0.047397552716 -0.090672647988 -0.1478965067 -0.22880524257 
-0.35256589937 -0.54855741212 -0.82518217074 -1.0180384321 -0.8827194126 -0.61503267697 -0.42665629726 -0.32168429541 -0.26641121856 
-0.23776499084 -0.22270537314 -0.21368102958 -0.20501577182 -0.1926982634 -0.17294995055 -0.14242561003 -0.09621683858 -0.024307733042 
0.097038324344 0.33010381576 0.79388021712 1.2306919158 0.83887932292 0.40642288988 0.20346188581 0.11131854864 0.066467976952 
0.043371917765 0.031376289644 0.025728548091 0.024151167143 0.025558593035 0.029750407108 0.036755718262 0.046917253891 0.060465149741 
0.077570557386 0.098773968922 0.12401012523 0.15353887727 0.18798633523 0.2275964847 0.27397493408 0.32816106806 0.38989537185 
0.45742662324 0.52015011609 0.55959408982 0.55968567402 0.52020047927 0.4552271279 0.38402847875 0.3173392092 0.25800799524 
0.20664733517 0.16245529933 0.12397143864 0.09062432718 0.062248325387 0.0385615395 0.019551285495 0.0058202652648 -0.002364179579 
-0.0041709394741 0.0015381832884 0.016001485841 0.041116695807 0.078440364159 0.12944938186 0.19323113906 0.26185353185 0.31726358751 
0.33690843945 0.3110306731 0.25313964319 0.18536001714 0.12191982262 0.067247887146 0.020505423732 -0.020770942426 -0.059385108302 
-0.097566810527 -0.13598283857 -0.1737218367 -0.20698180981 -0.22920872235 -0.23334814816 -0.21507964915 -0.17731242574 -0.1292075826 
0 0 
Abscissas 1 128 double
0 0.50285195156 1.0057039031 1.5085550239 2.0114060724 2.5142600399 3.0171140915 3.5199671747 4.0228202078 
4.5256690454 5.028517582 5.5313697899 6.0342223345 6.5370734097 7.0399243189 7.5427780465 8.0456321513 8.5484838224 
9.0513351378 9.5541877597 10.057040591 10.559894698 11.06274904 11.565599649 12.06844948 12.57130022 13.074151173 
13.577002698 14.079854371 14.582706153 15.085557966 15.588410028 16.091262165 16.594115786 17.096969805 17.59982334 
18.102676731 18.605528556 19.108379873 19.61123106 20.1140822 20.61693475 21.119787848 21.62263887 22.125489017 
22.628341253 23.131194435 23.634042375 24.13688778 24.639741551 25.142599666 25.645446517 26.148287079 26.651142634 
27.154007193 27.656856991 28.159697252 28.66255158 29.165415693 29.668267361 30.171109724 30.673971036 31.176847569 
31.679700499 32.182533119 32.685376283 33.188229144 33.691081291 34.193932738 34.696786495 35.19964267 35.702493622 
36.205338727 36.708190209 37.211049341 37.713904348 38.216754052 38.719605327 39.222458769 39.725311198 40.228162126 
40.731013468 41.233865467 41.736713517 42.239554793 42.742407013 43.245279469 43.748145195 44.250997491 44.753845 
45.25668218 45.759527825 46.262393253 46.76524581 47.268065778 47.770899917 48.273772969 48.77664044 49.279491312 
49.78234004 50.285181839 50.78802955 51.290898168 51.793762362 52.296609293 52.799462136 53.302340715 53.8052093 
54.308028937 54.810857711 55.31373748 55.81660984 56.319434594 56.822261497 57.325104528 57.827950658 58.330824255 
58.833694579 59.336530082 59.83936838 60.3422439 60.845118187 61.347969834 61.850821001 62.353655768 62.856490978 
63.359331164 63.86217135 
ParallelTransportNormals 3 128 double
0.0049200572635 0 0.99998789645 -0.0069192520903 0.002588861359 0.99989338519 -0.018758561444 0.0051777227179 0.99979887394 
-0.023521454705 0.0053027551095 0.99970112576 -0.027668484153 0.0052133593097 0.99960309588 -0.026833530579 0.0054119073978 0.99962475554 
-0.025854885086 0.005618760454 0.99964986733 -0.022934500803 0.0067035839794 0.99970921436 -0.019913577885 0.0078338667363 0.999770334 
-0.02102601431 0.0072416623331 0.9997514382 -0.022435026653 0.0065258663985 0.99972680114 -0.046241456026 -0.008364118179 0.99842403165 
-0.072102176648 -0.024554159439 0.99700403183 -0.16023494559 -0.093070249566 0.9748845234 -0.25539821519 -0.16749393918 0.95042804496 
-0.37085651084 -0.29596650467 0.85547042006 -0.48903035249 -0.4316710002 0.75107949335 -0.53202589747 -0.51449130455 0.66190817899 
-0.5640302884 -0.58957987888 0.5749619896 -0.57029651465 -0.61640028339 0.54209193338 -0.57243037477 -0.63547103859 0.51790401839 
-0.57290970102 -0.63480021482 0.518420219 -0.57308504847 -0.63050237461 0.5234751768 -0.57497408601 -0.6119088667 0.5422615404 
-0.57722044165 -0.59033459765 0.56391101202 -0.5820654003 -0.54623191865 0.59914371868 -0.58751965197 -0.49684701576 0.637561279 
-0.59437977017 -0.38126922751 0.69330713773 -0.60160729602 -0.24839266169 0.75358155536 -0.57633901945 0.044060513011 0.74464783515 
-0.54181131099 0.38198382949 0.7159937821 -0.46989356585 0.62398329041 0.54764941337 -0.38669903741 0.83705224929 0.33717463882 
-0.34183827029 0.90899847782 0.20893410138 -0.30725465419 0.94311018239 0.10274028319 -0.29132003496 0.95457214242 0.048263491901 
-0.28092033365 0.95931178504 0.0091360247751 -0.27828100946 0.96049904258 -0.00093243426357 -0.27816085381 0.96053312721 -0.0015677771418 
-0.28040370504 0.95889468773 0.025113345234 -0.28348686337 0.95666148319 0.061508455413 -0.2810505942 0.94760097446 0.1297775752 
-0.27647163953 0.93589005214 0.21042043804 -0.25671978597 0.90671373384 0.31364548608 -0.23057681273 0.87018065156 0.42638258911 
-0.19516152868 0.81763923546 0.52905101294 -0.1555494716 0.75785223137 0.62716221665 -0.12176587766 0.69777546429 0.70052103199 
-0.090802672054 0.63755848116 0.76190218775 -0.069671813266 0.58708212526 0.80463083971 -0.053647411759 0.54166459182 0.83767226078 
-0.044071915001 0.50763075208 0.85990100116 -0.038096932036 0.4799525879 0.87609287055 -0.034802357631 0.46089241893 0.88665212002 
-0.03311759765 0.44700809262 0.89382849983 -0.032209505024 0.43832601673 0.89822196024 -0.031803277593 0.4330055195 0.90081715992 
-0.031610929483 0.43052124039 0.90202657272 -0.031567338752 0.43000960814 0.9022721428 -0.031783107372 0.43131009663 0.90163966697 
-0.032192835939 0.43396576603 0.9003505511 -0.033284120915 0.43825595908 0.8982147908 -0.034922883365 0.44385912472 0.89539894188 
-0.037828114646 0.45068509383 0.89183850533 -0.041823113618 0.45856325759 0.88763736802 -0.047149957589 0.46659674483 0.88315419782 
-0.053701545498 0.47477306513 0.87841167456 -0.060934497082 0.4822059778 0.87388110882 -0.06883573131 0.48890975501 0.86955843139 
-0.076894864769 0.49476331663 0.86557362925 -0.085119329251 0.49972664585 0.86194260507 -0.093785948626 0.50422820819 0.85841532132 
-0.1029476877 0.50821268958 0.85500420485 -0.11355014324 0.51208711084 0.8513188261 -0.12588049305 0.5158295337 0.84730451641 
-0.14107807797 0.51949629477 0.84258136644 -0.15996197234 0.52306577997 0.83694688395 -0.18304430207 0.52613676654 0.83009804122 
-0.21191868321 0.52852003747 0.82157389893 -0.24479815044 0.52970985094 0.81141743452 -0.28361144994 0.52913146861 0.79884256377 
-0.32411206504 0.52722840727 0.78461375813 -0.3673004293 0.5232152458 0.76775037595 -0.40909888837 0.51871347869 0.74992192128 
-0.44851390162 0.51337383782 0.73043853498 -0.48412544629 0.50863955232 0.71150208 -0.51270362544 0.5050246886 0.69357700915 
-0.53612049368 0.50238329046 0.67825608222 -0.54923678845 0.50168466498 0.66813231861 -0.55720730662 0.50111486804 0.66211346397 
-0.55407481104 0.50082304369 0.66495174876 -0.54682584907 0.49898098043 0.672076293 -0.52995811376 0.49351653931 0.68921635889 
-0.51113881098 0.48511392792 0.70898439998 -0.48737828717 0.46927209191 0.73540627529 -0.46470695934 0.45136492541 0.76131264604 
-0.44502649221 0.42778649691 0.78580347512 -0.42806043301 0.40530629831 0.80759401007 -0.41916669172 0.38609210139 0.82135419985 
-0.41197880542 0.36960364563 0.83284651136 -0.41030245742 0.36192193299 0.83701141344 -0.40898040736 0.35559948101 0.84040641703 
-0.40891138157 0.35408424468 0.84107856682 -0.40891207011 0.3521406411 0.84189211701 -0.40918487947 0.34852496202 0.84325760514 
-0.40977189901 0.34319373545 0.84512843287 -0.41172632764 0.33039662969 0.84919844453 -0.41426761209 0.31488453324 0.85378275999 
-0.41968306464 0.28607557653 0.86088591495 -0.42570265168 0.25373588923 0.86809298519 -0.43509424773 0.20168923977 0.87588006411 
-0.4446516109 0.14573005844 0.88280872847 -0.45527408321 0.064631552065 0.88422179237 -0.46523382328 -0.019141686946 0.88358390934 
-0.47022070142 -0.1229849865 0.86755658938 -0.47425431915 -0.22614868651 0.84962947529 -0.46983802553 -0.32328826555 0.81486216506 
-0.4652221801 -0.41731618868 0.78012598332 -0.45848273977 -0.47823042351 0.74572106528 -0.45205304228 -0.53639074183 0.71262624792 
-0.44974846935 -0.55787467107 0.69697922235 -0.44757411893 -0.57778665343 0.68251474864 -0.44779395917 -0.5687977894 0.68979194446 
-0.44781811912 -0.5587259955 0.69791528488 -0.44113675805 -0.5115446439 0.73503408711 -0.43500146507 -0.46821942737 0.76911916712 
-0.43500146507 -0.46821942737 0.76911916712 -0.43500146507 -0.46821942737 0.76911916712 
FrenetTangent 3 128 double
-0.99898950375 0.042363303026 -0.015010727748 -0.99898950375 0.042363303026 -0.015010727748 -0.9996821387 0.019034726359 -0.016531810592 
-0.99967040587 -0.017027944245 -0.019212723597 -0.99770373379 -0.063554921464 -0.023410073652 -0.99259752945 -0.11776378946 -0.029695696919 
-0.983494664 -0.1767077856 -0.03889221507 -0.96994892087 -0.23767062483 -0.052074609845 -0.9518053306 -0.29848435952 -0.070524462128 
-0.92894072563 -0.35766518778 -0.095628142889 -0.90097642086 -0.41433717236 -0.12870973803 -0.86707577469 -0.46798779172 -0.17078356988 
-0.82592127318 -0.5181463655 -0.22221249835 -0.77595060056 -0.56410294776 -0.2822915688 -0.71589549479 -0.60480314323 -0.34886501468 
-0.64554187746 -0.63904620596 -0.41820524995 -0.56641259048 -0.66599242895 -0.48541823403 -0.48192229425 -0.68576451668 -0.54541537379 
-0.39674782885 -0.69977014737 -0.59406472809 -0.31568928917 -0.71050022362 -0.62891152394 -0.24264959729 -0.72093710063 -0.64913085727 
-0.18017119678 -0.73392728484 -0.65489623637 -0.12953234273 -0.75176176601 -0.64658767337 -0.091134041255 -0.77599521506 -0.62412019093 
-0.06492758854 -0.80736663288 -0.58646698829 -0.050748721979 -0.84564077014 -0.53133440985 -0.048494072888 -0.88918394393 -0.45497278902 
-0.058074594345 -0.934068373 -0.3523401993 -0.079009381087 -0.97269164378 -0.21823951022 -0.10948593733 -0.99270326978 -0.050527692364 
-0.14512319399 -0.97883451399 0.14429917807 -0.17881135182 -0.92060979861 0.34713700343 -0.20321090621 -0.82209527097 0.53185025434 
-0.21435865666 -0.70180309489 0.6793546808 -0.21248843978 -0.58114176029 0.78557171373 -0.19997102916 -0.47467463407 0.85714384981 
-0.17925665076 -0.3888870955 0.90367797368 -0.15209635053 -0.32520264028 0.93333270751 -0.11963094933 -0.2828147745 0.95168494749 
-0.082690486678 -0.26022203939 0.9620014416 -0.04210966555 -0.25579979888 0.96581221723 0.001026338955 -0.26787549052 0.96345299221 
0.04524147202 -0.29458524384 0.95455368802 0.088637885378 -0.33370580605 0.93850080463 0.12902177363 -0.38255179558 0.9148811429 
0.16416671107 -0.43803063107 0.88384300485 0.19218059164 -0.49686978598 0.84627834427 0.21183574408 -0.55592793438 0.80378464112 
0.22276654899 -0.61251087042 0.75842303385 0.22550528904 -0.66457423404 0.71238223733 0.22135062835 -0.71079315159 0.66766533157 
0.21215839119 -0.75050048438 0.62588963883 0.20010169775 -0.78356548924 0.58820441568 0.18745388916 -0.81025603353 0.55528929359 
0.17641700282 -0.83108685618 0.52741983145 0.16898986912 -0.84668288774 0.50454981096 0.16688472459 -0.85765931973 0.48638460089 
0.17147218774 -0.8645169375 0.47244867829 0.18375237105 -0.86756138173 0.46213884826 0.20433131184 -0.86685586008 0.45476327122 
0.23339800973 -0.86221399835 0.44956911606 0.27069871619 -0.85323863093 0.44576456089 0.31551545895 -0.83940099786 0.44255616588 
0.36667300252 -0.8201584214 0.43919366233 0.42258205153 -0.79509706195 0.43502307043 0.48135027339 -0.76406312364 0.42954564065 
0.5409511607 -0.72724820499 0.4224711707 0.59941978695 -0.68520821088 0.41374584803 0.65504405755 -0.63880244735 0.40354518449 
0.70649820841 -0.58907198761 0.39224287748 0.75288854491 -0.53710953169 0.38035797601 0.79373732013 -0.48393248201 0.36849751626 
0.8289002175 -0.43041600165 0.35730448492 0.85845926352 -0.37728830243 0.34742082511 0.88263512806 -0.32513947959 0.33946951191 
0.90171139461 -0.27448046591 0.33403148753 0.91598594104 -0.22580898503 0.33163241412 0.92575452151 -0.1796440161 0.33272600347 
0.93130460014 -0.13658064301 0.33766472973 0.93292211035 -0.097312654574 0.34667936669 0.93090549164 -0.062594656746 0.35985674174 
0.92557182306 -0.033254665394 0.37710864163 0.91725676709 -0.010159731833 0.39816680309 0.90630424895 0.0058461447054 0.42258541257 
0.89304911552 0.013984816835 0.44974181724 0.87778622491 0.013572347076 0.47886024554 0.86073549123 0.0040462731966 0.50903638555 
0.84199764163 -0.014977362643 0.53927326107 0.82151140081 -0.043693437221 0.56851552475 0.7990224015 -0.082080737923 0.59567269064 
0.77406752142 -0.12982974311 0.6196480534 0.74598722724 -0.1862949869 0.63937253199 0.71398108303 -0.25044489114 0.65384124188 
0.67721767283 -0.32077984944 0.66217558986 0.63498760887 -0.39532183931 0.66371031328 0.58688232371 -0.47169451954 0.6580831394 
0.53296523091 -0.54726988192 0.64532452222 0.47387182135 -0.61942504207 0.62590583492 0.41081050485 -0.68585700733 0.60069534258 
0.34544191033 -0.7448494667 0.57084950604 0.27968520963 -0.79544075421 0.53763388106 0.21549405892 -0.83745477589 0.50222685005 
0.15465731796 -0.87139954596 0.46555767129 0.098686794358 -0.89827616318 0.42820655213 0.048759493507 -0.91936038266 0.39038314332 
0.0057139262165 -0.93600471275 0.35194108706 -0.029913520353 -0.94946870856 0.31243295723 -0.057845424623 -0.9607816919 0.27120554449 
-0.078030613567 -0.97064674163 0.22749972817 -0.090623785013 -0.97938247761 0.18054720197 -0.095985564843 -0.98689521278 0.12970971561 
-0.0947154541 -0.9927035331 0.074623576181 -0.087690058703 -0.99602995438 0.015322649357 -0.076098766195 -0.9959621318 -0.047627825875 
-0.06144914719 -0.99168276984 -0.1130897268 -0.045495012128 -0.98271835229 -0.17942921706 -0.030087812112 -0.96913740501 -0.24467818408 
-0.016961873705 -0.95161583056 -0.30682178192 -0.0075024724546 -0.93132713946 -0.36410640233 -0.0025557077958 -0.90971724538 -0.41522042558 
-0.0023251378596 -0.88823608929 -0.45938137034 -0.0063624914324 -0.86812009166 -0.49631343439 -0.013648579642 -0.85028856521 -0.52613978385 
-0.022747280792 -0.83533831583 -0.54926538151 -0.032012029941 -0.82360606262 -0.56625814215 -0.039835758189 -0.81526377452 -0.57771800242 
-0.044902858389 -0.81039323481 -0.58416310932 -0.044902858389 -0.81039323481 -0.58416310932 
FrenetNormal 3 128 double
-0.041376829094 -0.99728882861 -0.060851872184 -0.041376829094 -0.99728882861 -0.060851872184 -0.01788273857 -0.99757677215 -0.067236830129 
0.018495750993 -0.99670281307 -0.079002592448 0.065564326359 -0.9929780944 -0.09846737095 0.12063447466 -0.98429574035 -0.12887675916 
0.18080590276 -0.96799424939 -0.1740584921 0.24319528596 -0.94049943937 -0.23731173048 0.30503378812 -0.89730370667 -0.31906182175 
0.36389192807 -0.83447512862 -0.41380421023 0.41857302271 -0.75201276472 -0.50918898884 0.47031896002 -0.6559539901 -0.59035958426 
0.52255745897 -0.55560211753 -0.64671476639 0.578657033 -0.45840826364 -0.67455014786 0.63975710381 -0.36808489026 -0.67470316561 
0.70429722971 -0.28634979768 -0.64959156829 0.76901951248 -0.21536602724 -0.60185252657 0.83055729166 -0.15920977871 -0.53369170093 
0.88656207482 -0.12438679459 -0.44557335291 0.93501621116 -0.120118073 -0.33364102477 0.96963713885 -0.1592580355 -0.18558204951 
0.96645102998 -0.25599110409 0.020999078181 0.86536989806 -0.40406257169 0.29642600709 0.62113550403 -0.53416956328 0.57345755143 
0.32905176315 -0.57215814529 0.7512389726 0.10462518825 -0.53359411328 0.83924423874 -0.038414629055 -0.45351134901 0.89042224399 
-0.12323792682 -0.34352860898 0.93102121792 -0.16837897648 -0.20275688608 0.96464406152 -0.18354075969 -0.029768634354 0.98256125404 
-0.1731073222 0.16871279364 0.97034522118 -0.1403510017 0.37308212782 0.91712121457 -0.089689976537 0.55652900237 0.82597286737 
-0.025551776054 0.69931313355 0.71435862701 0.051784368765 0.79610390826 0.60294025111 0.14823272763 0.85008757701 0.50534955216 
0.27775703512 0.8611816454 0.42569613936 0.46059562945 0.81218900691 0.35805122982 0.70479581452 0.65093647897 0.28203645187 
0.9342692325 0.31572325495 0.1657100706 0.99490914642 -0.099319170065 0.017073161207 0.90582412487 -0.40792084199 -0.114381998 
0.77855106497 -0.5883294624 -0.21846437448 0.65544563152 -0.68993024066 -0.30722514079 0.53999699505 -0.74670124478 -0.38838189503 
0.42792879541 -0.77567271984 -0.46390600099 0.31620304534 -0.78501064115 -0.53270435271 0.20380618346 -0.77923861722 -0.59266366264 
0.091988077408 -0.7612940354 -0.6418485688 -0.016082127466 -0.73365661014 -0.67933006968 -0.11608507454 -0.69898564405 -0.70565099368 
-0.20233554956 -0.6603264794 -0.72320762301 -0.26855549706 -0.62121785044 -0.73618362335 -0.3055585819 -0.58536320728 -0.75098859418 
-0.29750420136 -0.55578425715 -0.77626999792 -0.20748760698 -0.53100080308 -0.82157594907 0.051781360615 -0.48499790061 -0.87298094315 
0.53719755969 -0.3199409007 -0.78042078517 0.88141784129 -0.062694597963 -0.4681580678 0.96585836207 0.10294731402 -0.23773824885 
0.97216883192 0.19724540838 -0.12641997914 0.96129883612 0.26424103202 -0.077982207355 0.94453935942 0.3225755691 -0.061566230434 
0.92319467568 0.37919331397 -0.062642010148 0.89679733247 0.43623748918 -0.073833579828 0.86481838102 0.49381968045 -0.090726462768 
0.82708850398 0.55114420628 -0.11029356498 0.78387403881 0.60711628504 -0.13019718779 0.73580557434 0.66071417653 -0.14848209894 
0.68368350361 0.71129436624 -0.16320904216 0.62836157313 0.75851305883 -0.17268373691 0.57048281053 0.80245287092 -0.17498215005 
0.51047321019 0.843231054 -0.16845916791 0.44837382305 0.88096337338 -0.15120995194 0.38382357378 0.91542065333 -0.12117958438 
0.31620431462 0.94559588148 -0.076571929167 0.24450029424 0.96953058004 -0.015167744934 0.16758421377 0.98372238467 0.064852148771 
0.084268957202 0.98267709354 0.1650589976 -0.0063527395506 0.95819097665 0.28605890123 -0.10407768202 0.89890847205 0.42559534182 
-0.20626812704 0.7909873202 0.57601433928 -0.30588322826 0.62229808061 0.7205418444 -0.39069904848 0.39284173611 0.83248400819 
-0.44779468742 0.12554347629 0.88527891282 -0.47240838554 -0.14138025228 0.86996663243 -0.47096572315 -0.37318414539 0.79932776835 
-0.45589883243 -0.55420552457 0.6964283819 -0.43827540008 -0.68618215814 0.58057619615 -0.42555166577 -0.77707316672 0.4637489335 
-0.42188967465 -0.83554269037 0.35196237724 -0.42892142631 -0.86883494447 0.24728980838 -0.44675964962 -0.8819863689 0.1500195339 
-0.47458567081 -0.87816510311 0.059954088606 -0.51059570469 -0.85950134894 -0.023440510445 -0.55236781726 -0.82751596737 -0.10053416436 
-0.59715886502 -0.78360636258 -0.17135448186 -0.64204444274 -0.72948988278 -0.23584623058 -0.68402603434 -0.66746024476 -0.29428762462 
-0.72065977165 -0.60018417602 -0.34702802248 -0.74947617612 -0.53087308912 -0.3955492696 -0.76852651347 -0.46274156886 -0.44185658143 
-0.77548931245 -0.39903552549 -0.48927188319 -0.76758040977 -0.34256814573 -0.54172629627 -0.74064971049 -0.29550754082 -0.60341801404 
-0.68859351027 -0.25889252704 -0.67735783531 -0.60411948437 -0.23184968727 -0.76242073103 -0.48350508724 -0.21071194185 -0.84960185274 
-0.33390788321 -0.18957052654 -0.92334638191 -0.17626757877 -0.16265661779 -0.97081026229 -0.034683599903 -0.12691621802 -0.99130687554 
0.076603056035 -0.082006067105 -0.99368353955 0.15547215704 -0.028877870143 -0.98741808622 0.20517741526 0.031102831221 -0.97823046475 
0.23008919001 0.096177837369 -0.96840528099 0.23330451537 0.16419566407 -0.95844081038 0.21668111919 0.23264410736 -0.94811708765 
0.18051418318 0.29890883745 -0.93705289955 0.12455749616 0.36041052777 -0.92444019905 0.048715120393 0.41461552926 -0.90869180691 
-0.045628585171 0.45899838638 -0.88726462429 -0.15363461845 0.49127937317 -0.85734531054 -0.26629677643 0.51027609574 -0.81774343958 
-0.37158939989 0.51711173576 -0.77104913632 -0.4582887197 0.51557687195 -0.72398338276 -0.52007720619 0.51060373566 -0.68469228471 
-0.55495102641 0.50646218624 -0.65994349166 -0.55495102641 0.50646218624 -0.65994349166 
FrenetBinormal 3 128 double
-0.017547917394 -0.060169285279 0.99803393114 -0.017547917394 -0.060169285279 0.99803393114 -0.017771584911 -0.066919824096 0.99760007413 
-0.017804123916 -0.079331907408 0.99668925029 -0.016987604297 -0.099776129362 0.99486488797 -0.014052332452 -0.13150507754 0.991215893 
-0.0068899498312 -0.17821754026 0.98396698976 0.0074258858984 -0.24284455653 0.97003679187 0.031953102234 -0.32519708657 0.94510626606 
0.068204053718 -0.41919789261 0.90532940629 0.11418455989 -0.5126416968 0.85097613185 0.16425491405 -0.59220924484 0.78886534563 
0.21163117109 -0.65025428173 0.72964485643 0.25111093893 -0.68676759399 0.68212430554 0.27965065467 -0.706205828 0.65043742193 
0.29536603843 -0.71387935956 0.63492925852 0.29628662943 -0.71419294234 0.63414720242 0.27915137038 -0.71019664461 0.64629346151 
0.23790512352 -0.70345551827 0.66973986444 0.16150838237 -0.69336936822 0.70224921619 0.030413679594 -0.67445279676 0.73769128573 
-0.18305940705 -0.62914171312 0.75542700395 -0.48410361671 -0.52114075385 0.70289117434 -0.77838632578 -0.33540170522 0.53067921005 