# vtk DataFile Version 4.2
vtk output
ASCII
DATASET POLYDATA
POINTS 128 float
0 0 0 -0.251618 0.0596412 -0.220377 -0.776159 0.121537 -0.609681 
-1.27768 0.0406989 -0.824152 -1.71486 -0.17078 -0.848945 -2.11759 -0.455583 -0.762291 
-2.47181 -0.778064 -0.590159 -2.76017 -1.11155 -0.346851 -3.00229 -1.44366 -0.0564243 
-3.22471 -1.76728 0.257479 -3.43828 -2.08148 0.585799 -3.64935 -2.38728 0.923595 
-3.86447 -2.68641 1.26518 -4.08982 -2.98111 1.60436 -4.32925 -3.27527 1.93351 
-4.58602 -3.57359 2.24436 -4.86455 -3.88235 2.52779 -5.16705 -4.20985 2.76911 
-5.48008 -4.57307 2.92221 -5.77993 -4.98529 2.93614 -6.01449 -5.41623 2.80212 
-6.13047 -5.82341 2.53375 -6.1365 -6.19395 2.18246 -6.06335 -6.52742 1.80815 
-5.9301 -6.82998 1.43084 -5.75036 -7.10984 1.05459 -5.53237 -7.37098 0.683963 
-5.28195 -7.61562 0.323319 -5.00359 -7.84584 -0.0260357 -4.70109 -8.06397 -0.363615 
-4.37745 -8.27499 -0.684707 -4.03505 -8.48475 -0.983571 -3.67406 -8.6965 -1.26235 
-3.29417 -8.91528 -1.52027 -2.90003 -9.17423 -1.69597 -2.50651 -9.51173 -1.70276 
-2.20097 -9.87734 -1.51354 -2.09352 -10.1806 -1.14309 -2.16259 -10.4007 -0.67319 
-2.33165 -10.5484 -0.20749 -2.57171 -10.6327 0.222383 -2.87667 -10.6609 0.619119 
-3.23472 -10.6377 0.974956 -3.63125 -10.5673 1.27802 -4.05355 -10.4577 1.52895 
-4.49031 -10.3191 1.73552 -4.93423 -10.1605 1.90983 -5.3803 -9.98988 2.06648 
-5.82443 -9.81408 2.22162 -6.26274 -9.63881 2.39262 -6.68793 -9.46908 2.60011 
-7.08865 -9.30968 2.86641 -7.43141 -9.16892 3.20944 -7.66966 -9.05724 3.64109 
-7.77477 -8.98353 4.13401 -7.73326 -8.95496 4.63577 -7.56677 -8.97076 5.1142 
-7.31986 -9.02489 5.55252 -7.02268 -9.11289 5.9485 -6.69441 -9.23162 6.31001 
-6.34907 -9.379 6.64429 -5.99692 -9.55384 6.95788 -5.6468 -9.75672 7.25587 
-5.30646 -9.98978 7.5422 -4.98361 -10.2577 7.81881 -4.68652 -10.5676 8.08521 
-4.43401 -10.9315 8.32616 -4.25329 -11.364 8.51371 -4.15698 -11.8511 8.62068 
-4.14319 -12.3532 8.62269 -4.18933 -12.8468 8.5283 -4.25494 -13.3246 8.37581 
-4.31447 -13.7888 8.19449 -4.35748 -14.2508 8.00371 -4.37618 -14.7189 7.8217 
-4.36487 -15.1976 7.66609 -4.31915 -15.6872 7.55776 -4.23604 -16.183 7.52079 
-4.11654 -16.6713 7.57164 -3.966 -17.1293 7.71754 -3.79087 -17.5406 7.95183 
-3.59849 -17.8974 8.2523 -3.39316 -18.1989 8.59887 -3.17549 -18.4524 8.97511 
-2.94525 -18.664 9.36869 -2.70144 -18.8385 9.77224 -2.44314 -18.9786 10.18 
-2.16964 -19.0855 10.588 -1.88085 -19.1587 10.9929 -1.5775 -19.1959 11.392 
-1.26149 -19.1946 11.7831 -0.936259 -19.1516 12.164 -0.605574 -19.066 12.533 
-0.273432 -18.9396 12.8885 0.0577937 -18.7769 13.2297 0.388424 -18.5859 13.5565 
0.720285 -18.375 13.8692 1.05735 -18.1531 14.1684 1.40331 -17.928 14.4548 
1.76097 -17.7061 14.729 2.13171 -17.4923 14.9921 2.51443 -17.2892 15.2465 
2.90717 -17.0988 15.4951 3.30679 -16.9215 15.7427 3.71031 -16.7583 15.9935 
4.11551 -16.6114 16.2516 4.52049 -16.4838 16.5203 4.92402 -16.3801 16.8012 
5.32488 -16.3052 17.095 5.7218 -16.2645 17.4007 6.11314 -16.2632 17.7164 
6.49629 -16.3059 18.0392 6.8678 -16.3969 18.3659 7.22225 -16.5402 18.693 
7.55233 -16.7396 19.0168 7.84628 -16.9991 19.3328 8.09011 -17.32 19.6364 
8.26554 -17.6962 19.9222 8.35787 -18.117 20.185 8.36562 -18.5625 20.421 
8.29154 -19.0123 20.6321 8.14363 -19.4495 20.8382 7.93506 -19.8617 21.0515 
7.69286 -20.2472 21.248 7.43042 -20.6011 21.4337 7.10094 -20.896 21.7523 
6.7168 -21.0989 22.2438 6.52378 -21.1745 22.5143 
LINES 1 129
128 0 1 2 3 4 5 6 7 8 9 10 11 12 13 14 15 16 17 18 19 20 21 22 23 24 25 26 27 28 29 30 31 32 33 34 35 36 37 38 39 40 41 42 43 44 45 46 47 48 49 50 51 52 53 54 55 56 57 58 59 60 61 62 63 64 65 66 67 68 69 70 71 72 73 74 75 76 77 78 79 80 81 82 83 84 85 86 87 88 89 90 91 92 93 94 95 96 97 98 99 100 101 102 103 104 105 106 107 108 109 110 111 112 113 114 115 116 117 118 119 120 121 122 123 124 125 126 127 

CELL_DATA 1
FIELD FieldData 2
Length 1 1 double
53.326875976 
Tortuosity 1 1 double
0.68819109338 
POINT_DATA 128
SCALARS MaximumInscribedSphereRadius float
LOOKUP_TABLE default
0.9796 1.15507 1.33054 1.35409 1.36383 1.3135 1.26198 1.28797 1.31668 
1.39645 1.47906 1.42096 1.35188 1.22232 1.08661 1.24585 1.44232 1.53634 
1.61498 1.543 1.44453 1.46545 1.5071 1.47902 1.43759 1.39233 1.34626 
1.30686 1.26909 1.25281 1.24244 1.28105 1.33472 1.50016 1.70394 1.80126 
1.85797 1.98289 2.12585 2.02982 1.86085 1.8233 1.82918 2.01945 2.27591 
2.33649 2.32028 2.23471 2.11927 1.94769 1.74955 1.63889 1.57324 1.59715 
1.67013 1.71918 1.75489 1.71577 1.63245 1.64333 1.71416 1.77909 1.83997 
1.8701 1.87727 1.87737 1.87177 1.94698 2.09165 2.19011 2.24795 2.1762 
1.98152 1.78525 1.58735 1.46942 1.44012 1.51794 1.72325 1.8901 2.00864 
2.09627 2.14266 2.16371 2.14839 2.1079 2.02831 1.97092 1.95088 1.97348 
2.07404 2.1756 2.27917 2.35771 2.38202 2.3817 2.32292 2.31671 2.44787 
2.55525 2.59391 2.58223 2.40874 2.26189 2.21091 2.17692 2.21196 2.25627 
2.34344 2.41365 2.39412 2.37753 2.37896 2.40118 2.57332 2.73231 2.77845 
2.81098 2.70415 2.59161 2.40824 2.23898 2.30009 2.3611 2.41894 2.47272 
2.47636 2.48 
TEXTURE_COORDINATES TCoords 2 float
0 0 0.00787402 0 0.015748 0 0.023622 0 0.0314961 
0 0.0393701 0 0.0472441 0 0.0551181 0 0.0629921 0 
0.0708661 0 0.0787402 0 0.0866142 0 0.0944882 0 0.102362 
0 0.110236 0 0.11811 0 0.125984 0 0.133858 0 
0.141732 0 0.149606 0 0.15748 0 0.165354 0 0.173228 
0 0.181102 0 0.188976 0 0.19685 0 0.204724 0 
0.212598 0 0.220472 0 0.228346 0 0.23622 0 0.244094 
0 0.251969 0 0.259843 0 0.267717 0 0.275591 0 
0.283465 0 0.291339 0 0.299213 0 0.307087 0 0.314961 
0 0.322835 0 0.330709 0 0.338583 0 0.346457 0 
0.354331 0 0.362205 0 0.370079 0 0.377953 0 0.385827 
0 0.393701 0 0.401575 0 0.409449 0 0.417323 0 
0.425197 0 0.433071 0 0.440945 0 0.448819 0 0.456693 
0 0.464567 0 0.472441 0 0.480315 0 0.488189 0 
0.496063 0 0.503937 0 0.511811 0 0.519685 0 0.527559 
0 0.535433 0 0.543307 0 0.551181 0 0.559055 0 
0.566929 0 0.574803 0 0.582677 0 0.590551 0 0.598425 
0 0.606299 0 0.614173 0 0.622047 0 0.629921 0 
0.637795 0 0.645669 0 0.653543 0 0.661417 0 0.669291 
0 0.677165 0 0.685039 0 0.692913 0 0.700787 0 
0.708661 0 0.716535 0 0.724409 0 0.732283 0 0.740157 
0 0.748031 0 0.755906 0 0.76378 0 0.771654 0 
0.779528 0 0.787402 0 0.795276 0 0.80315 0 0.811024 
0 0.818898 0 0.826772 0 0.834646 0 0.84252 0 
0.850394 0 0.858268 0 0.866142 0 0.874016 0 0.88189 
0 0.889764 0 0.897638 0 0.905512 0 0.913386 0 
0.92126 0 0.929134 0 0.937008 0 0.944882 0 0.952756 
0 0.96063 0 0.968504 0 0.976378 0 0.984252 0 
0.992126 0 1 0 
FIELD FieldData 7
Curvature 1 128 double
0 0.092089824784 0.16905137354 0.23254315632 0.27270969742 0.28248594189 0.26307642156 0.22363136386 0.17556898586 
0.1277059858 0.086223163187 0.060449786017 0.066950937912 0.10119422555 0.149830986 0.20987508814 0.28098186266 0.35983784231 
0.43604823726 0.49155029646 0.50835465058 0.48166073535 0.42384785884 0.35434988737 0.28822017321 0.23295081844 0.19127102097 
0.16468596883 0.15571838554 0.16796361971 0.20532145402 0.27416047954 0.38773938153 0.56933153892 0.84476944263 1.1967537995 
1.4738586856 1.4570559929 1.1741088357 0.84675599202 0.59442029445 0.42175452139 0.30334821578 0.21775277856 0.15184341675 
0.099616659579 0.065645891156 0.072077729107 0.11589009059 0.17762019282 0.25154824546 0.33337958972 0.41304861352 0.47322577562 
0.49632885081 0.47711550662 0.42727380579 0.36636881542 0.31052015013 0.26861519132 0.24406888649 0.23673698394 0.24394723869 
0.26085438352 0.28098813682 0.29633988075 0.2988453664 0.28298248623 0.24846575755 0.19984056211 0.14362490456 0.085118807354 
0.027223341214 0.030182315894 0.085762071035 0.14011976425 0.19157854407 0.23683186016 0.27145298787 0.29172945215 0.29644279848 
0.28794366695 0.27079631023 0.25002784413 0.22942405791 0.21109958419 0.19586116055 0.18328730285 0.17252142267 0.16250796771 
0.15229134421 0.14107695649 0.12850921048 0.11461230513 0.099597439675 0.084078381736 0.068673803761 0.05429608482 0.04225017598 
0.034753643568 0.03446360609 0.041266442554 0.052432254429 0.066024154344 0.081119824762 0.097499743745 0.1150772902 0.13401203785 
0.15443763203 0.17647083493 0.2000262141 0.22479660339 0.24987544774 0.27363584755 0.2936657963 0.30721915065 0.31181277144 
0.30635864918 0.29148147969 0.26928795848 0.24229513879 0.21245199683 0.18064708726 0.14696791079 0.11132271997 0.073818337135 
0.035007224527 0 
Torsion 1 128 double
0 0 0.00899968555 0.010671837756 0.010258066072 0.0057491266818 -0.0069396322752 -0.036756204562 -0.10459097755 
-0.26645282163 -0.68449725599 -1.4865636252 -1.1917737525 -0.45714991457 -0.13934979201 -0.0022780254309 0.066411460946 0.10522491215 
0.12980368966 0.14820765141 0.16590671822 0.18700188908 0.21475837657 0.25339120691 0.30965480376 0.39338754506 0.51303667514 
0.65627942214 0.75850109171 0.74021746602 0.62412691252 0.49459451206 0.39430671474 0.32391398578 0.2718731886 0.22924832899 
0.19710986745 0.17787859926 0.1616843032 0.13399507273 0.091479916855 0.037962103723 -0.028626546167 -0.12542155973 -0.30667668844 
-0.75228293233 -1.7866279812 -1.543101592 -0.6370720682 -0.29984604263 -0.17346142161 -0.12141307479 -0.10215827023 -0.10193500879 
-0.11615867315 -0.14431435095 -0.18771974756 -0.24660489216 -0.31588204184 -0.37968643624 -0.41002000966 -0.38506884951 -0.31321398326 
-0.22483545191 -0.14470463641 -0.082586925977 -0.038399519323 -0.0088326584109 0.0092619305517 0.017486137995 0.013111956933 -0.028129927738 
-0.62526756828 -0.49680019543 -0.032074222493 0.0021037025537 0.0044593211888 -0.0022618968487 -0.013677202928 -0.028340714026 -0.045614517072 
-0.064769312415 -0.084054354843 -0.10124914242 -0.11383451839 -0.11958581103 -0.11817321307 -0.11125271159 -0.10199510573 -0.093997984495 
-0.090290411077 -0.093386202493 -0.1048650274 -0.12676884562 -0.16268598606 -0.21865179455 -0.30919523691 -0.46070707653 -0.71026981319 
-0.99970968542 -0.99834052028 -0.70454661655 -0.44970898479 -0.29352661949 -0.19909920094 -0.13927569614 -0.10120123309 -0.077627344797 
-0.065529912602 -0.062783748466 -0.067229305013 -0.077727552431 -0.093210362499 -0.11266097055 -0.13477889691 -0.15927750162 -0.18524494943 
-0.21114377042 -0.2346130729 -0.25143164683 -0.25688188711 -0.24738941408 -0.22311504123 -0.18671633174 -0.14394209222 -0.10058593231 
0 0 
Abscissas 1 128 double
0 0.50229858068 1.0045971614 1.5068936346 2.0091899163 2.511491342 3.0137928709 3.5160898621 4.0183866942 
4.5206874158 5.0229883531 5.5252838366 6.0275788943 6.5298787982 7.0321791949 7.5344753887 8.0367710518 8.5390726428 
9.041375124 9.5436744852 10.045973298 10.548271266 11.050569087 11.552865345 12.055161303 12.557460717 13.059760874 
13.562061101 14.064361345 14.566660116 15.068958481 15.571258086 16.073558072 16.575855627 17.078152347 17.580449609 
18.082747078 18.585041982 19.087336208 19.589638764 20.091943862 20.594243509 21.096541354 21.598836541 22.101130774 
22.603430659 23.105732761 23.608030689 24.110326819 24.612626355 25.114927502 25.617226715 26.119524932 26.621823018 
27.124121032 27.626419526 28.128718289 28.631018618 29.133319871 29.635618411 30.137915224 30.640213026 31.142511509 
31.644813791 32.147118912 32.649422256 33.15172417 33.654016447 34.156300445 34.658579898 35.160855356 35.663142077 
36.165439484 36.667744522 37.170057387 37.672357437 38.174643282 38.676949732 39.179280706 39.681584672 40.183854705 
40.686138527 41.188440746 41.690747039 42.193059179 42.695365379 43.197662358 43.699968032 44.202288345 44.704598897 
45.206891601 45.709184067 46.211476059 46.713767199 47.216056493 47.718348983 48.220649057 48.722951159 49.225258561 
49.727560912 50.229848658 50.73213846 51.234434868 51.736732162 52.239032639 52.741330488 53.243617669 53.745909704 
54.248224145 54.750537889 55.252847938 55.755152927 56.257426861 56.759704115 57.262005313 57.764306485 58.266607428 
58.768909289 59.271220565 59.773529776 60.275813372 60.778098831 61.280414707 61.78273006 62.285028592 62.787326519 
63.289616975 63.791907431 
ParallelTransportNormals 3 128 double
-0.6128203688 0 0.79022224443 -0.43419396865 0.019779640436 0.87638581292 -0.2555675685 0.039559280873 0.96254938141 
-0.062229481248 0.13818753347 0.9649460091 0.13244570271 0.24398207632 0.95972933586 0.22576031942 0.33510223163 0.90367626276 
0.31704265764 0.4259281656 0.84660392028 0.3502904375 0.46983399458 0.8076201789 0.38150326165 0.51209459117 0.76927070618 
0.39266889549 0.52802522748 0.75262385326 0.40272305343 0.54249605243 0.73718025817 0.39969783896 0.5385403574 0.74170903181 
0.39565126034 0.53314574113 0.74779744155 0.37300732071 0.50617708214 0.77604451744 0.34847239778 0.47701477026 0.80654469084 
0.28221010132 0.40188238658 0.86234688313 0.21067939921 0.32094592357 0.92134365222 0.06547274375 0.12440082157 0.95357474647 
-0.090797681077 -0.089504996649 0.9817864933 -0.18941727224 -0.32304288455 0.88519568831 -0.27790030975 -0.56003261374 0.76666126722 
-0.28334386243 -0.67268461111 0.67133177614 -0.27436934955 -0.76374796817 0.58003133465 -0.25728747704 -0.80681898284 0.52865851781 
-0.23865286096 -0.84069837355 0.48493274826 -0.22248496164 -0.86026147483 0.45758539097 -0.20684881424 -0.87673840318 0.43376873991 
-0.19595351002 -0.88593377268 0.42006434418 -0.18621784841 -0.89334802319 0.40883347513 -0.1882985009 -0.89231495366 0.41019103133 
-0.19363237812 -0.88895619865 0.41501438708 -0.23319413399 -0.86443089672 0.44053398591 -0.28328346951 -0.8333953313 0.47241919534 
-0.4537106142 -0.69169325889 0.49216292361 -0.66540265779 -0.51204266261 0.50774323062 -0.82633659077 -0.26296736482 0.32003943228 
-0.96791221574 0.012585371519 0.05480642183 -0.9554244958 0.13093582803 -0.15540872364 -0.90217946552 0.20769857198 -0.35106894561 
-0.81738768532 0.23720396798 -0.49963983959 -0.72296877323 0.25228782378 -0.63384046808 -0.61829989207 0.24420345221 -0.73428001765 
-0.51024305909 0.22846121967 -0.82356042049 -0.42302167121 0.20691133843 -0.87755689085 -0.34328038505 0.183276462 -0.91888612984 
-0.30336114964 0.1701472813 -0.93718380663 -0.27905362393 0.16113672004 -0.94645226327 -0.30127880781 0.17012120988 -0.93707055206 
-0.34354981464 0.1868577866 -0.91965453627 -0.43740308836 0.22467355751 -0.85869369949 -0.55565866743 0.27246137819 -0.77713287589 
-0.6834126939 0.32982969891 -0.59858841174 -0.81605399749 0.39212751565 -0.37014253663 -0.85869908144 0.42713366986 -0.10973075856 
-0.8520405959 0.44718834738 0.16819323418 -0.79935229649 0.44363046803 0.36940963115 -0.72101416211 0.42691463437 0.527881185 
-0.65251798566 0.40649720673 0.63278368507 -0.58983397669 0.38389380305 0.70605098466 -0.54339126997 0.36410459296 0.75485321593 
-0.50728658585 0.34610669225 0.78808277788 -0.48186393886 0.33133956269 0.81080841343 -0.46380641236 0.31880000623 0.82629173344 
-0.44643686266 0.30286933243 0.84158012041 -0.42958118708 0.2844057135 0.85672290503 -0.4054314334 0.23619040587 0.87987528044 
-0.3754074725 0.16401489632 0.9094780935 -0.35714122456 0.058907074433 0.92459298095 -0.34897875128 -0.074500525144 0.92725793565 
-0.34941244385 -0.17843781564 0.91696783477 -0.35740174549 -0.25647214679 0.89529087408 -0.36184213222 -0.30125178241 0.88213462545 
-0.36291582713 -0.31448422279 0.8770615832 -0.36418584517 -0.29784761629 0.88137636833 -0.36565722229 -0.25057578246 0.895319791 
-0.37579201159 -0.17141646319 0.90525778151 -0.39552913688 -0.056913754707 0.91075623889 -0.42601127098 0.064808780562 0.89420999056 
-0.46928294618 0.19512491244 0.85142442738 -0.51145490287 0.30108589083 0.79996066205 -0.55224524068 0.37644854815 0.73759413579 
-0.58595014717 0.4315480966 0.68435700393 -0.6102008226 0.4596101784 0.64330140343 -0.62946444467 0.47963257482 0.61100375828 
-0.64157210323 0.48811876114 0.59127297465 -0.65143407119 0.49420691341 0.5755931294 -0.65781000091 0.49657254111 0.56620165091 
-0.66454463276 0.49832686738 0.55674155111 -0.67188329198 0.4990518081 0.54716589821 -0.68133765898 0.49878880625 0.5354805796 
-0.69466060145 0.49671934965 0.51993773344 -0.70846751884 0.49339771207 0.50433228939 -0.72323680085 0.48758616301 0.48860237198 
-0.73471952919 0.48282060947 0.47649568565 -0.7390808388 0.48032155535 0.47223994236 -0.73846884025 0.48092144155 0.47244858887 
-0.72605510892 0.48887515828 0.48325129748 -0.71010861115 0.49882403622 0.49631633054 -0.68492944882 0.51398714345 0.51529380737 
-0.65979139257 0.52858307206 0.53365805157 -0.63477217378 0.54153929054 0.55024944379 -0.61216772355 0.55294402372 0.56511616031 
-0.59732677128 0.5593607207 0.57443803229 -0.5838706234 0.56501656656 0.58293054897 -0.57539861511 0.56793398364 0.58843807904 
-0.56633672625 0.57079139493 0.59446311221 -0.55488050433 0.57340524196 0.60258869734 -0.54183734905 0.57578042658 0.61210255318 
-0.52146964324 0.5770540559 0.62802402468 -0.49978738219 0.57737357958 0.64531055897 -0.47114664536 0.57264263381 0.66982292622 
-0.44212974726 0.56642862254 0.69507306253 -0.41080438307 0.55111317858 0.72485081782 -0.38037303621 0.53455719782 0.7543895203 
-0.35639098196 0.50905219052 0.7822037354 -0.33416876396 0.48410283609 0.80860600789 -0.32705122917 0.46392265297 0.82288957001 
-0.32051842792 0.4463891184 0.83545467435 -0.31997982527 0.45598680832 0.83040358886 -0.31812729035 0.4683350727 0.8240274559 
-0.2999748198 0.51480548137 0.8012134982 -0.28022230935 0.56232941846 0.77740836011 -0.23434394026 0.6270556356 0.73741897654 
-0.1856340943 0.69323188464 0.69410973209 -0.045791074666 0.80607848101 0.54394831354 0.083579523878 0.91047433683 0.40503202979 
0.083579523878 0.91047433683 0.40503202979 0.083579523878 0.91047433683 0.40503202979 
FrenetTangent 3 128 double
-0.92709635535 -0.35684190875 -0.11470047975 -0.92709635535 -0.35684190875 -0.11470047975 -0.92010585653 -0.38527034699 -0.07051221536 
-0.90452747408 -0.42640827967 -0.0024551307692 -0.87675741639 -0.47369312269 0.083133978126 -0.8358088539 -0.51978739709 0.17676148216 
-0.78475648734 -0.55895237448 0.26782363346 -0.72968601332 -0.58881444766 0.34764330597 -0.67705326201 -0.61032658264 0.41121812086 
-0.63157237837 -0.62642502249 0.45684573116 -0.59556296632 -0.6406375496 0.48465274496 -0.56926683012 -0.65626656105 0.4952266925 
-0.5513923917 -0.676062074 0.48878062818 -0.53949405416 -0.70209214525 0.46477175593 -0.53010141995 -0.73557543158 0.42180714673 
-0.51865386077 -0.77651827246 0.35779539577 -0.49940731852 -0.82305527871 0.27050386023 -0.46565525717 -0.8705927059 0.15885062767 
-0.41088199067 -0.91134196158 0.025136006175 -0.33130070006 -0.93553462971 -0.12253490426 -0.22885638033 -0.93525303348 -0.27004910768 
-0.11186458407 -0.90901635778 -0.40146678085 0.0084073047214 -0.86286053117 -0.50537216087 0.1225420264 -0.80674882112 -0.57804826044 
0.22535708999 -0.75005509773 -0.62179701862 0.31538786051 -0.69938004537 -0.641403188 0.39329647498 -0.65861028816 -0.64152191786 
0.46053357702 -0.62981038352 -0.62549796582 0.5185203441 -0.61405882894 -0.59503647565 0.56816962451 -0.61198139866 -0.55014729435 
0.60946255585 -0.6240078796 -0.48904964903 0.64084084066 -0.65034405477 -0.40789168583 0.65810346526 -0.69044764045 -0.30030298834 
0.65238614925 -0.74140011162 -0.15722018559 0.60730612438 -0.79386081468 0.031052829316 0.49872528827 -0.82519085333 0.26520396382 
0.30932065362 -0.79882646739 0.51594283428 0.061810168244 -0.6923665531 0.71889363557 -0.18220417801 -0.5319399145 0.82694713548 
-0.37822425751 -0.36544998237 0.85052496813 -0.52016973074 -0.2201915719 0.82519035554 -0.61891388532 -0.10185003722 0.77882743434 
-0.68609238606 -0.0076112397748 0.72747460906 -0.73010695347 0.066781163754 0.68006184474 -0.7564297341 0.12497751186 0.64202389278 
-0.76841351818 0.16973793192 0.61703298092 -0.76777634585 0.2030373479 0.60769673203 -0.75475559215 0.22613645962 0.61579728625 
-0.72809102584 0.23953864142 0.64226528581 -0.68500056485 0.2429030603 0.68685684786 -0.62138382377 0.23499806875 0.74743431232 
-0.53270822016 0.21385421539 0.81883351588 -0.41611877693 0.17744824839 0.89182805665 -0.27371960567 0.12508768211 0.95364073385 
-0.11508503797 0.05885497218 0.99161057189 0.044341568183 -0.016337712296 0.99888282821 0.18921065905 -0.094760239735 0.97735347928 
0.3097657749 -0.17236520455 0.93505903608 0.40288895987 -0.24777141511 0.88107310245 0.46978512016 -0.32165598013 0.82209450267 
0.51326558972 -0.39565690927 0.76158653124 0.53606121543 -0.47142526248 0.70028322499 0.54015807202 -0.54990483751 0.637050961 
0.52682520555 -0.63072260163 0.56977557212 0.49711624828 -0.7117133314 0.49632607186 0.45271147566 -0.78882722759 0.41569691462 
0.396832854 -0.85685324741 0.32912945537 0.33465773259 -0.91110819079 0.24059523414 0.2726840162 -0.9493588818 0.15608055885 
0.21723371807 -0.97267620093 0.08191776294 0.17305290044 -0.98463888381 0.023215557953 0.14277010664 -0.98961388676 -0.016764598863 
0.12721213418 -0.99121049358 -0.036315703728 0.12603978932 -0.99141836001 -0.034693038916 0.13825641971 -0.99032709258 -0.011722291362 
0.16243983458 -0.98619310567 0.032194075089 0.19671754145 -0.97578108151 0.095673872345 0.2386292639 -0.95507560914 0.17574599634 
0.28511658985 -0.92042717072 0.26743663472 0.33283488247 -0.86987575099 0.36405647756 0.3787545747 -0.80402708093 0.45835076663 
0.42078654282 -0.72589133967 0.54407761245 0.45806202117 -0.6397562718 0.61716375255 0.49072473876 -0.54983440295 0.6759225992 
0.51947802817 -0.45937397527 0.72049852817 0.5451374439 -0.37044626863 0.75206032292 0.56835093661 -0.28414803693 0.77216391133 
0.58949691569 -0.20100412701 0.7823622737 0.60870484561 -0.12136257248 0.78405965139 0.62596223423 -0.045630494329 0.77851726975 
0.64123921194 0.025601989894 0.76691382253 0.65459425122 0.091541397648 0.75041757628 0.66624638081 0.15127153475 0.7302278294 
0.67658052005 0.20390915171 0.70757321722 0.68609459471 0.24870098594 0.68368269446 0.69531418673 0.28512220804 0.65972987519 
0.70468997999 0.31291333206 0.63678668228 0.71452492758 0.33204725846 0.61579115454 0.72492667345 0.34269685886 0.59752839351 
0.73580602683 0.34515034493 0.58263258601 0.74691001988 0.33973574193 0.57158118221 0.7578609447 0.32676061227 0.56468955255 
0.76819420561 0.30646570485 0.56210002154 0.77739526024 0.2789685716 0.56376692473 0.78489564847 0.24424828716 0.5694572813 
0.79005203161 0.20215823859 0.57874850662 0.79210481156 0.1524628943 0.59103725209 0.79011065142 0.09490358129 0.60557284349 
0.78288685605 0.029276497543 0.62147490481 0.76895296795 -0.04442598187 0.63775988054 0.74651311331 -0.12583697538 0.6533630134 
0.71352287468 -0.21401302046 0.66714581194 0.66785660934 -0.30718665779 0.67794093152 0.60764960027 -0.4025157947 0.68464808355 
0.53182479582 -0.49598679583 0.68641058042 0.44071022107 -0.58265339295 0.68285395563 0.33649414597 -0.65728049349 0.67435453777 
0.22324563675 -0.71534896973 0.66214593345 0.10635133225 -0.75406029289 0.64813769279 -0.0084363442753 -0.77290167033 0.63446972827 
-0.1159336085 -0.77362192369 0.62295145686 -0.21211230831 -0.75975239841 0.61464189718 -0.29428192458 -0.73596232348 0.60971928564 
-0.36099135992 -0.70743251881 0.60763843639 -0.41180671623 -0.67929351162 0.60743357953 -0.4469855762 -0.65607940182 0.60808199544 
-0.46710487693 -0.64126631551 0.60876148576 -0.46710487693 -0.64126631551 0.60876148576 
FrenetNormal 3 128 double
0.10801863637 -0.54738839141 0.82987825802 0.10801863637 -0.54738839141 0.82987825802 0.15594997871 -0.52551358889 0.83637017644 
0.22844123025 -0.48943134845 0.84158871159 0.31737518875 -0.43999982133 0.84004353863 0.41205040996 -0.38112435159 0.82762231016 
0.50224653094 -0.32027453392 0.80322639715 0.58198167677 -0.26789505297 0.76780828889 0.65186349322 -0.23800625594 0.72001875554 
0.71942031143 -0.25381826556 0.64653747268 0.79138280259 -0.36433601744 0.49088952541 0.78116828719 -0.61956350836 0.076923118719 
0.46439222499 -0.73546538027 -0.49338680139 0.2141811139 -0.64826728317 -0.73066817367 0.14203884704 -0.5674553138 -0.81106068378 
0.15875368373 -0.49867002708 -0.85212996192 0.22155475934 -0.42317364566 -0.8785428585 0.31101866375 -0.32904353184 -0.89162646044 
0.41434870647 -0.21122752187 -0.88526723844 0.51971017256 -0.072548549451 -0.85125674418 0.61566614365 0.07582341571 -0.78435069273 
0.69447484021 0.21745194665 -0.68587123224 0.75477290792 0.33698911309 -0.56281097637 0.80076465051 0.42445340776 -0.42262900886 
0.83857382284 0.47423513431 -0.26813239461 0.87164386718 0.48072963717 -0.095582345404 0.89510834529 0.43365589878 0.1035548726 
0.88758554716 0.31877503474 0.33252725256 0.81212188944 0.13590650273 0.56743938813 0.65340469061 -0.070902333007 0.75368107941 
0.44998822882 -0.23559765873 0.86139673619 0.24745632733 -0.32797290938 0.91170123219 0.058296116059 -0.35092389249 0.93458760132 
-0.12606901085 -0.31071442525 0.94210570025 -0.31588150381 -0.20541722775 0.92629511393 -0.5087792863 -0.030993811716 0.86033889919 
-0.67565817959 0.19717533972 0.71035759288 -0.77051120483 0.42473077132 0.47530648546 -0.77835478247 0.59192350329 0.20926155611 
-0.7279385271 0.68501275626 -0.029377278933 -0.65277145129 0.7255464114 -0.2178803279 -0.57090745932 0.73933468002 -0.35699986528 
-0.48812099875 0.74628394193 -0.45254631653 -0.40204272993 0.76275107023 -0.50652980976 -0.29888212939 0.80705603017 -0.50924457473 
-0.13159928667 0.90166606895 -0.41192223519 0.23040941682 0.97250590167 -0.033819696435 0.6138760799 0.57444631677 0.54144952459 
0.6826632598 0.16852391128 0.71103485502 0.70293174046 -0.027419070973 0.71072861403 0.73953660087 -0.13916666239 0.6585728935 
0.7904633478 -0.21988740812 0.5716793013 0.84468276269 -0.28771208664 0.45136768339 0.88808170183 -0.34784137437 0.30052831671 
0.90691873405 -0.40105122962 0.12905937021 0.89263503807 -0.44832760367 -0.046957944898 0.84355375214 -0.49378027036 -0.21118265045 
0.76150630699 -0.54390187127 -0.35253212455 0.64704121851 -0.60374133349 -0.46565444676 0.49911604268 -0.67134096917 -0.54789093719 
0.32156283837 -0.73409061455 -0.59808720987 0.13116090022 -0.77295788486 -0.62075190413 -0.048089771106 -0.77591715496 -0.62899915942 
-0.19992980258 -0.74349093557 -0.6381608753 -0.32137108891 -0.68235587508 -0.65659049868 -0.415911874 -0.59919666926 -0.68409112303 
-0.48740538993 -0.50055014131 -0.7154617683 -0.53829553582 -0.39439276321 -0.74477665407 -0.57090172929 -0.29024449487 -0.76800348221 
-0.58862372951 -0.19748145167 -0.78391528962 -0.5966560881 -0.12355933882 -0.79292786704 -0.6046581061 -0.073798265391 -0.79305888227 
-0.66754498267 -0.058477772545 -0.74226952398 0.4272625328 0.022689739504 0.90384285348 0.48261326246 0.057031050952 0.87397476973 
0.4779025695 0.10717861244 0.87184968836 0.4623381965 0.17837017191 0.86857784558 0.44085979222 0.26779352744 0.85669672012 
0.41478438256 0.37002212791 0.83128667789 0.38536958918 0.47783154037 0.78940946204 0.3546849179 0.58353770427 0.73053566423 
0.32551038624 0.68063647865 0.65633602094 0.30053433055 0.76485813358 0.56979922048 0.28112830502 0.83417584971 0.47446551812 
0.26743076587 0.88824193893 0.3735064168 0.25769864948 0.9276877221 0.27016087119 0.24948298019 0.95380771334 0.16735916041 
0.24031167321 0.96833121336 0.067712339689 0.22874680894 0.97311250395 -0.026962048347 0.21477048991 0.96976988568 -0.11584474737 
0.19981978546 0.95939052574 -0.19910266814 0.18642399292 0.94243986755 -0.27758456533 0.17809435986 0.91859991449 -0.3527840644 
0.17854669563 0.88679402394 -0.42628328207 0.19264622754 0.84410057128 -0.50038151103 0.22564858182 0.78492034006 -0.57704659887 
0.28495300511 0.6971169018 -0.6578980241 0.37953882179 0.55543398396 -0.73989416285 0.51279582562 0.31069363379 -0.80031862852 
0.64400098182 -0.090591331374 -0.75964198547 0.65198717636 -0.5429493246 -0.52926246114 0.52637670234 -0.81760980486 -0.23332761138 
0.38130331587 -0.92429051067 -0.017170707394 0.26056806996 -0.95857856695 0.11502787444 0.16239899736 -0.96799402784 0.19134818452 
0.079047364794 -0.96977610347 0.23083722244 0.0035828593064 -0.96944691478 0.2452750345 -0.069032660013 -0.96787927947 0.24175233653 
-0.14241857239 -0.96393678412 0.22481731795 -0.21946138792 -0.95530555416 0.19806059023 -0.30183414671 -0.93915084416 0.16398731595 
-0.39000125153 -0.91236778615 0.12443490906 -0.48342017722 -0.87160593708 0.081289745396 -0.58004550109 -0.81377121465 0.036381683238 
-0.67653497762 -0.73636799756 -0.0079117768197 -0.76813265978 -0.63841412488 -0.048985938187 -0.84992675398 -0.5203161545 -0.083039823181 
-0.91672735874 -0.38496786649 -0.10682083838 -0.9644771405 -0.23675209417 -0.11718485979 -0.99017541052 -0.082106242955 -0.11318666562 
-0.9928137017 0.071522127652 -0.095945500027 -0.97400346551 0.21554596088 -0.06969352858 -0.93867857698 0.34250844935 -0.039629423862 
-0.89457038182 0.446784387 -0.011293516027 -0.85049905305 0.52585153393 0.011468435588 -0.81419467275 0.57995278103 0.027236127444 
-0.79155680473 0.61007596327 0.035286597114 -0.79155680473 0.61007596327 0.035286597114 
FrenetBinormal 3 128 double
-0.35892105273 0.75698731899 0.54602735902 -0.35892105273 0.75698731899 0.54602735902 -0.35928375545 0.75855271908 0.54361103323 
-0.36006201266 0.76067925841 0.54011333335 -0.36134391149 0.76289906459 0.53611155078 -0.3628195411 0.76456869571 0.53272571756 
-0.36318821256 0.76485061678 0.53206940926 -0.35896469167 0.76258100345 0.53815849275 -0.34157410118 0.75554912789 0.55899253013 
-0.28905145975 0.7369993075 0.61096749042 -0.13790581174 0.67590146947 0.72397457873 0.25634231645 0.43064516711 0.8653515799 
0.6930413348 -0.045063804997 0.71948798582 0.81429270903 -0.29464580287 0.5001112225 0.83595301931 -0.37003141934 0.40528915382 
0.84011632564 -0.38515915753 0.38191227103 0.83755944196 -0.37881931552 0.39368782985 0.8285122644 -0.36578503878 0.4239914305 
0.81209059789 -0.35332529356 0.4644029476 0.78749043339 -0.34570459151 0.51024224906 0.75404241044 -0.34576375317 0.55845095599 
0.71076790244 -0.3555332786 0.60696381825 0.65593229429 -0.37670949206 0.6540969224 0.58631000866 -0.41109079809 0.69802931849 
0.49599206208 -0.46099716675 0.73584882048 0.37518990691 -0.52892964379 0.76122661913 0.20999745939 -0.61495938873 0.76008290157 