# vtk DataFile Version 4.2
vtk output
ASCII
DATASET POLYDATA
POINTS 128 float
0 0 0 -0.323597 -0.0359139 0.0851259 -0.961228 -0.0835654 0.249012 
-1.49903 -0.0706179 0.378471 -1.94838 -0.0128595 0.479402 -2.42339 0.054719 0.586125 
-2.91893 0.130574 0.698061 -3.40538 0.219538 0.807556 -3.88425 0.315376 0.916497 
-4.36452 0.409332 1.02904 -4.84664 0.496299 1.14667 -5.32882 0.571668 1.27025 
-5.81111 0.627662 1.40167 -6.29359 0.654838 1.54298 -6.77334 0.640253 1.69543 
-7.24551 0.570351 1.85919 -7.69993 0.434818 2.03013 -8.12549 0.226926 2.20226 
-8.51688 -0.0454998 2.36768 -8.87225 -0.369167 2.51836 -9.1981 -0.73012 2.64979 
-9.5039 -1.1149 2.75889 -9.79735 -1.51493 2.8433 -10.0851 -1.92383 2.90084 
-10.3716 -2.33668 2.92865 -10.6601 -2.74926 2.92359 -10.9513 -3.15781 2.88215 
-11.2447 -3.55884 2.80076 -11.5376 -3.94919 2.67632 -11.8254 -4.32591 2.50606 
-12.1018 -4.68635 2.28818 -12.359 -5.02809 2.02166 -12.5876 -5.34952 1.70797 
-12.7777 -5.64957 1.35029 -12.9204 -5.92879 0.955563 -13.0083 -6.18872 0.532849 
-13.0387 -6.43243 0.0926277 -13.012 -6.66386 -0.354077 -12.9319 -6.88729 -0.798454 
-12.8041 -7.10712 -1.23318 -12.6344 -7.32716 -1.65309 -12.4283 -7.55076 -2.0544 
-12.1908 -7.78053 -2.43418 -11.9258 -8.01864 -2.78988 -11.6358 -8.26779 -3.11736 
-11.3219 -8.53077 -3.41147 -10.9878 -8.80766 -3.66743 -10.6384 -9.09714 -3.87964 
-10.2681 -9.40436 -4.02802 -9.86826 -9.73606 -4.08068 -9.48166 -10.0569 -3.98532 
-9.18614 -10.3034 -3.68205 -9.014 -10.4535 -3.2158 -8.96086 -10.5178 -2.70642 
-8.99959 -10.5218 -2.20542 -9.08771 -10.5006 -1.7108 -9.20521 -10.4718 -1.22214 
-9.34998 -10.4386 -0.741273 -9.51774 -10.4061 -0.268003 -9.70214 -10.3809 0.19952 
-9.8984 -10.3686 0.662655 -10.1031 -10.3742 1.12229 -10.3116 -10.4031 1.57938 
-10.5179 -10.4614 2.0349 -10.7141 -10.5553 2.48898 -10.8908 -10.6905 2.94089 
-11.0384 -10.8695 3.38821 -11.1477 -11.0915 3.82693 -11.2144 -11.352 4.25315 
-11.2397 -11.6435 4.66323 -11.2275 -11.9596 5.05502 -11.185 -12.2953 5.42787 
-11.1189 -12.6475 5.78134 -11.0354 -13.0148 6.11516 -10.9401 -13.3966 6.42888 
-10.8381 -13.7928 6.72191 -10.7341 -14.2035 6.99348 -10.6322 -14.6287 7.24263 
-10.5361 -15.0679 7.46888 -10.4483 -15.5197 7.67235 -10.37 -15.9824 7.85415 
-10.3008 -16.4536 8.01664 -10.239 -16.931 8.16296 -10.1811 -17.4124 8.29717 
-10.1233 -17.8959 8.42337 -10.061 -18.38 8.54566 -9.98959 -18.8628 8.6678 
-9.90392 -19.3425 8.79314 -9.79892 -19.8168 8.92459 -9.66943 -20.2826 9.06444 
-9.51056 -20.7361 9.21459 -9.31783 -21.1723 9.37628 -9.08782 -21.5853 9.55013 
-8.81894 -21.9687 9.73567 -8.51151 -22.3163 9.93184 -8.16901 -22.6237 10.1367 
-7.79614 -22.8882 10.3483 -7.39929 -23.1102 10.5649 -6.98471 -23.2917 10.7855 
-6.55806 -23.437 11.0098 -6.12433 -23.5507 11.2383 -5.68729 -23.6379 11.4722 
-5.25021 -23.7034 11.7127 -4.81562 -23.7518 11.9616 -4.38582 -23.7871 12.2208 
-3.96284 -23.8128 12.4921 -3.5486 -23.8323 12.7771 -3.14489 -23.8482 13.077 
-2.75344 -23.8631 13.3928 -2.37582 -23.8792 13.725 -2.01346 -23.8988 14.0736 
-1.66756 -23.9237 14.4382 -1.3391 -23.9564 14.8181 -1.02872 -23.9991 15.2119 
-0.736819 -24.0543 15.6181 -0.463347 -24.1249 16.0346 -0.208128 -24.2141 16.4591 
0.0291394 -24.3268 16.8885 0.248813 -24.4675 17.3194 0.451356 -24.6373 17.7473 
0.636867 -24.8403 18.1673 0.804187 -25.0915 18.5734 0.951943 -25.3967 18.9579 
1.07891 -25.7217 19.3071 1.18509 -26.0562 19.6151 1.27494 -26.5142 19.9112 
1.34705 -27.1069 20.192 1.37744 -27.4166 20.3217 
LINES 1 129
128 0 1 2 3 4 5 6 7 8 9 10 11 12 13 14 15 16 17 18 19 20 21 22 23 24 25 26 27 28 29 30 31 32 33 34 35 36 37 38 39 40 41 42 43 44 45 46 47 48 49 50 51 52 53 54 55 56 57 58 59 60 61 62 63 64 65 66 67 68 69 70 71 72 73 74 75 76 77 78 79 80 81 82 83 84 85 86 87 88 89 90 91 92 93 94 95 96 97 98 99 100 101 102 103 104 105 106 107 108 109 110 111 112 113 114 115 116 117 118 119 120 121 122 123 124 125 126 127 

CELL_DATA 1
FIELD FieldData 2
Length 1 1 double
58.829428393 
Tortuosity 1 1 double
0.72244376079 
POINT_DATA 128
SCALARS MaximumInscribedSphereRadius float
LOOKUP_TABLE default
0.62 0.780703 0.941407 1.04001 1.13388 1.02088 0.904978 0.849704 0.797996 
0.956334 1.12955 1.32048 1.51304 1.54026 1.54898 1.55 1.55 1.55 
1.55 1.55 1.55 1.51869 1.4813 1.40989 1.33105 1.30385 1.2892 
1.31238 1.34572 1.34007 1.32291 1.33592 1.35865 1.48013 1.63619 1.6684 
1.65372 1.5382 1.38149 1.37573 1.43651 1.51314 1.5973 1.63957 1.66041 
1.66215 1.6534 1.63067 1.59967 1.66872 1.7995 1.9158 2.0227 2.00347 
1.90105 1.80757 1.72031 1.68245 1.68134 1.75736 1.89476 2.01767 2.12824 
2.17742 2.17073 2.13599 2.07402 2.00589 1.93139 1.88472 1.86867 1.86 
1.86 1.86 1.86 1.83547 1.77801 1.72486 1.67791 1.71025 1.86468 
2.02002 2.17688 2.23577 2.12088 1.97513 1.77042 1.67076 1.78732 1.90749 
2.03566 2.08156 1.92997 1.80346 1.74207 1.73422 1.87682 2.00584 2.09333 
2.16394 2.17812 2.20862 2.29919 2.39668 2.52235 2.61499 2.55754 2.47766 
2.28315 2.12091 2.14593 2.18596 2.32617 2.46077 2.5518 2.63818 2.68139 
2.7078 2.54296 2.3845 2.31979 2.26264 2.34285 2.42026 2.30816 2.19224 
2.02612 1.86 
TEXTURE_COORDINATES TCoords 2 float
0 0 0.00787402 0 0.015748 0 0.023622 0 0.0314961 
0 0.0393701 0 0.0472441 0 0.0551181 0 0.0629921 0 
0.0708661 0 0.0787402 0 0.0866142 0 0.0944882 0 0.102362 
0 0.110236 0 0.11811 0 0.125984 0 0.133858 0 
0.141732 0 0.149606 0 0.15748 0 0.165354 0 0.173228 
0 0.181102 0 0.188976 0 0.19685 0 0.204724 0 
0.212598 0 0.220472 0 0.228346 0 0.23622 0 0.244094 
0 0.251969 0 0.259843 0 0.267717 0 0.275591 0 
0.283465 0 0.291339 0 0.299213 0 0.307087 0 0.314961 
0 0.322835 0 0.330709 0 0.338583 0 0.346457 0 
0.354331 0 0.362205 0 0.370079 0 0.377953 0 0.385827 
0 0.393701 0 0.401575 0 0.409449 0 0.417323 0 
0.425197 0 0.433071 0 0.440945 0 0.448819 0 0.456693 
0 0.464567 0 0.472441 0 0.480315 0 0.488189 0 
0.496063 0 0.503937 0 0.511811 0 0.519685 0 0.527559 
0 0.535433 0 0.543307 0 0.551181 0 0.559055 0 
0.566929 0 0.574803 0 0.582677 0 0.590551 0 0.598425 
0 0.606299 0 0.614173 0 0.622047 0 0.629921 0 
0.637795 0 0.645669 0 0.653543 0 0.661417 0 0.669291 
0 0.677165 0 0.685039 0 0.692913 0 0.700787 0 
0.708661 0 0.716535 0 0.724409 0 0.732283 0 0.740157 
0 0.748031 0 0.755906 0 0.76378 0 0.771654 0 
0.779528 0 0.787402 0 0.795276 0 0.80315 0 0.811024 
0 0.818898 0 0.826772 0 0.834646 0 0.84252 0 
0.850394 0 0.858268 0 0.866142 0 0.874016 0 0.88189 
0 0.889764 0 0.897638 0 0.905512 0 0.913386 0 
0.92126 0 0.929134 0 0.937008 0 0.944882 0 0.952756 
0 0.96063 0 0.968504 0 0.976378 0 0.984252 0 
0.992126 0 1 0 
FIELD FieldData 7
Curvature 1 128 double
0 0.0078757314449 0.01321796823 0.015688271518 0.014585202266 0.010033970852 0.0070491074274 0.017207121155 0.033617078885 
0.053336179396 0.075364880994 0.098740573735 0.12225395758 0.14433359337 0.16311017148 0.17671527253 0.18380326598 0.18408127919 
0.1785687692 0.1694337829 0.15942225242 0.15123955444 0.14689156111 0.14728323 0.15211061558 0.16031186585 0.17055769509 
0.18158320484 0.192336513 0.20195203712 0.20971960569 0.21504866064 0.21754709383 0.21702803484 0.21362613842 0.20786977119 
0.20062178687 0.1930350074 0.18656429713 0.18269481948 0.1830583346 0.18934655087 0.20347132662 0.22800077339 0.26653566539 
0.32445890355 0.40881202689 0.52554326258 0.67017175444 0.80985835461 0.879341556 0.82991109028 0.68762909575 0.52153481857 
0.37800495016 0.26882238179 0.18926688334 0.1317920968 0.09136648853 0.067391883067 0.062511473413 0.073559672778 0.091864402179 
0.11170662539 0.13028567539 0.14584099562 0.15716679068 0.1635130127 0.16476864187 0.16143890431 0.15451470283 0.14528421162 
0.13498062594 0.12461546858 0.11487216552 0.10595877173 0.097716195171 0.08973876 0.081505049835 0.07264087465 0.063049185414 
0.053159666401 0.044294481655 0.039159003762 0.041186365662 0.050688983628 0.065160933121 0.082166584273 0.10014593691 0.11800223236 
0.1346375251 0.14907768011 0.16023352133 0.16730572406 0.16972317911 0.16744416287 0.16081640402 0.15068507889 0.13808994077 
0.12412067177 0.10988278625 0.096359162237 0.08444789873 0.074890050428 0.068308408597 0.064939327047 0.064511569317 0.066384999053 
0.069762305943 0.074049789451 0.078855551511 0.084131670347 0.089982151859 0.096606185614 0.10421692397 0.11285800563 0.122296244 
0.13182569765 0.14034059089 0.14633850854 0.14805944238 0.14390343857 0.13290180307 0.11489725132 0.090675678109 0.061652201503 
0.02962308261 0 
Torsion 1 128 double
0 0 -0.069261459562 -0.13359388778 -0.30735508378 -1.0724305755 -3.1992428026 -0.74162174524 -0.26255834207 
-0.14245998937 -0.1004186181 -0.084754383558 -0.08129323815 -0.085189944382 -0.094932129809 -0.11041192883 -0.13232854619 -0.16173922908 
-0.19900600726 -0.24253361681 -0.28608933464 -0.31683975941 -0.31939666786 -0.28652764111 -0.22588643753 -0.15295298949 -0.080995943991 
-0.016527941773 0.03843600899 0.084201447538 0.12178690863 0.15260221328 0.17824049048 0.20021210135 0.22026623163 0.23977544518 
0.25962080781 0.27984962249 0.29868468638 0.31283768864 0.3176323733 0.30953662546 0.2882623079 0.25696781494 0.22152541116 
0.18693393038 0.15659826219 0.13216179844 0.114105031 0.10283191295 0.098855054912 0.10327108232 0.11626910531 0.13768385743 
0.17018692838 0.22069475754 0.30507853843 0.45812557044 0.73910400845 1.1171222255 1.1247968652 0.73165060738 0.43192663857 
0.26859819706 0.17619249726 0.11761473075 0.074870312306 0.039502157496 0.0069558398846 -0.025209150176 -0.057534602205 -0.089540240172 
-0.11913299353 -0.14284815514 -0.15627038436 -0.15576542696 -0.13916507841 -0.10597285517 -0.055958950372 0.015433345352 0.12067334033 
0.28605025897 0.53980440165 0.80363982608 0.78715934126 0.5355241619 0.32155563409 0.19478899726 0.12400040649 0.083892183941 
0.061252160479 0.049192927554 0.044255262576 0.044584253694 0.049435169079 0.058435698884 0.07204685347 0.091343540706 0.11721845737 
0.15169297079 0.19691237331 0.25393753048 0.32122167787 0.3902471316 0.44296163419 0.46105458592 0.44069690308 0.39809184262 
0.35362532644 0.31772741702 0.29347383487 0.27892712771 0.26846165997 0.25759039772 0.24363413261 0.22403471551 0.19983800118 
0.1729020641 0.14537835063 0.11944249278 0.095919382644 0.075486583329 0.058063555422 0.04334001077 0.030873184813 0.020282755486 
0 0 
Abscissas 1 128 double
0 0.50307578656 1.0061515731 1.5092292482 2.0123070675 2.5153874448 3.0184678581 3.5215463057 4.0246246378 
4.5276992054 5.0307735064 5.5338511083 6.0369290135 6.5400088208 7.043088841 7.5461662834 8.0492433847 8.5523199411 
9.0553964149 9.5584756876 10.061555439 10.56463025 11.067704103 11.570788349 12.073874862 12.576951451 13.080025629 
13.583101663 14.086178194 14.589254965 15.092331807 15.595417167 16.098505275 16.601577778 17.104644816 17.607720787 
18.110800139 18.613878393 19.116956199 19.620034364 20.123112689 20.626187547 21.129260757 21.632343973 22.135432307 
22.638507985 23.141576711 23.644645108 24.14771331 24.650796279 25.153888356 25.656971678 26.160049309 26.663127892 
27.166207104 27.669282682 28.172355735 28.675434515 29.178517552 29.681596756 30.184672909 30.687747777 31.190821551 
31.693902942 32.196991264 32.700064435 33.203122895 33.706196862 34.209286859 34.712364009 35.215427027 35.718504261 
36.221598192 36.724677274 37.227737722 37.730816673 38.23392047 38.737002145 39.240052033 39.743114132 40.246195036 
40.749281158 41.252375897 41.755456325 42.258511368 42.761581773 43.264681523 43.767774777 44.270854658 44.773935905 
45.277020184 45.780100944 46.283173257 46.786247006 47.289324482 47.792405411 48.295496042 48.79858009 49.301644027 
49.804709792 50.307781666 50.810858869 51.31395568 51.81704756 52.320119356 52.823190805 53.326260676 53.829331 
54.332403642 54.835476802 55.338552965 55.841631728 56.34472783 56.847822176 57.350902857 57.853981177 58.357037618 
58.860097731 59.363199606 59.86629903 60.369362466 60.872427444 61.375520382 61.878612941 62.381679788 62.884748042 
63.387834842 63.890921641 
ParallelTransportNormals 3 128 double
0.25042289031 0 0.96813654823 0.23886852551 -4.0857422952e-05 0.97097385763 0.22731416071 -8.1714845904e-05 0.97381116702 
0.22333785624 0.00027073051648 0.97473511526 0.21993996388 0.00065319557864 0.975513022 0.22039986296 0.00057214914451 0.97540928629 
0.22091410748 0.00048457313685 0.97529313071 0.22659329445 -0.00059169654417 0.97396911157 0.23257611835 -0.0017260896045 0.97257408448 
0.2437662999 -0.0035234346768 0.96975162007 0.25532535155 -0.0053677408353 0.96682804124 0.27357997919 -0.0066976733972 0.96162311125 
0.29244990326 -0.0079803371006 0.95620853429 0.31616982671 -0.0055761563283 0.9483351617 0.34043233385 -0.0027595174359 0.94018671642 
0.35825573215 0.0038083985578 0.93341159019 0.37522716054 0.010872652679 0.92681817025 0.37541812871 0.01015557379 0.92679452137 
0.37306856015 0.0082604126483 0.92776552607 0.35765785656 -0.0096730307481 0.93338788394 0.34001361927 -0.030349118183 0.93980565154 
0.3140274645 -0.065599376225 0.94597164165 0.286422609 -0.1036776676 0.95208877579 0.25079622972 -0.15413728475 0.95351883241 
0.21342053908 -0.20729698661 0.95392674434 0.16813294905 -0.26997450747 0.94468163923 0.12092271335 -0.33496492344 0.93309078498 
0.068591121871 -0.40481577927 0.9071193905 0.014883136179 -0.47597290664 0.87728314203 -0.037865530574 -0.54659380666 0.83055525058 
-0.090330951183 -0.61705638152 0.77883997428 -0.13225890727 -0.67998747924 0.7147051769 -0.17078916609 -0.74049012945 0.64656583245 
-0.19227278254 -0.78728324164 0.58081494988 -0.20778742045 -0.82927588129 0.51590040078 -0.21117089156 -0.85668927343 0.4684915096 
-0.20996087621 -0.87858220929 0.42771116485 -0.20722289615 -0.88954118579 0.40691226619 -0.20386062154 -0.89603277428 0.39427737014 
-0.2052073417 -0.89530889451 0.39527477951 -0.20862967858 -0.89140460208 0.40228099598 -0.21884393577 -0.88176704279 0.41710865875 
-0.23228524935 -0.86940542689 0.43565253831 -0.25463353662 -0.85014980605 0.45901573403 -0.28153814224 -0.82736759107 0.48484422711 
-0.32117552298 -0.79430680821 0.51185390947 -0.36780727175 -0.75559980243 0.53951244271 -0.4509338943 -0.68661904329 0.55593079327 
-0.55563677435 -0.59974003625 0.5657037975 -0.69329698302 -0.48425143207 0.47930431956 -0.85128496419 -0.35111669555 0.33358655275 
-0.93054848949 -0.28007729722 0.17553751739 -0.9586478416 -0.24939456573 0.0094742105656 -0.96330131326 -0.23789749574 -0.10226649354 
-0.95249178708 -0.23905372932 -0.1781804224 -0.9398998562 -0.24126990021 -0.23730458985 -0.92606919143 -0.24422270529 -0.2847602252 
-0.91298620943 -0.24636359352 -0.32365630792 -0.90045923064 -0.2479007118 -0.35618720606 -0.88971510228 -0.24836956584 -0.38246561617 
-0.88039005253 -0.2479881237 -0.40376729248 -0.87469001467 -0.24738231228 -0.41675598659 -0.87207633655 -0.24658547132 -0.42266695118 
-0.87411983199 -0.24883373705 -0.41681092125 -0.88040147912 -0.25385313079 -0.40024661358 -0.88796144418 -0.26554765574 -0.37376291343 
-0.89676272299 -0.28372408317 -0.33764696301 -0.90237400868 -0.30512924152 -0.30204860728 -0.90468797055 -0.32987176487 -0.26698526128 
-0.90491290876 -0.35123160806 -0.23928153707 -0.90284003598 -0.36887068937 -0.2196729915 -0.9012546119 -0.38051848895 -0.20716517095 
-0.90024166131 -0.38512995839 -0.20299664201 -0.90076327459 -0.38335540562 -0.20385600427 -0.90321071442 -0.37356660772 -0.21102520252 
-0.90692416797 -0.35803880514 -0.22087933455 -0.91233775791 -0.33480406343 -0.2343390781 -0.91793073111 -0.30851613624 -0.24789987161 
-0.92378145233 -0.27784121965 -0.26160585941 -0.92880760688 -0.24921911374 -0.27337465391 -0.93256411008 -0.22375788492 -0.28216059669 
-0.93532194148 -0.20456006181 -0.28857398161 -0.93643071696 -0.19570468208 -0.29106968237 -0.93649523039 -0.19472841167 -0.29145841581 
-0.93470740542 -0.20772830467 -0.28810975732 -0.93116214492 -0.22858194111 -0.28260883268 -0.92425981856 -0.26443785417 -0.27299663393 
-0.91400656438 -0.30734544965 -0.26071449397 -0.89685567328 -0.36476841151 -0.24293647761 -0.87421276904 -0.42728040403 -0.22187776358 
-0.83936832315 -0.50109863674 -0.19353036167 -0.79796191887 -0.57581277315 -0.16215421432 -0.74080485974 -0.65267734534 -0.12350817565 
-0.67941810448 -0.725344299 -0.083692897272 -0.60705373518 -0.78711689175 -0.040843012666 -0.53512160616 -0.84261393952 0.00088671217703 
-0.46440421473 -0.88047463826 0.03946841902 -0.39745438135 -0.91346893536 0.075780698032 -0.34201301097 -0.93159821845 0.10516073449 
-0.29102202928 -0.94714836963 0.13229324042 -0.2549064491 -0.95407778564 0.15191338705 -0.22256302953 -0.95995101388 0.16965199421 
-0.20409866081 -0.96193817121 0.18046778325 -0.1884251382 -0.96358498478 0.18971130395 -0.18411934694 -0.96384550315 0.19255062917 
-0.18166878509 -0.96401341304 0.19405094556 -0.18764781596 -0.96376053844 0.18946721706 -0.19477912026 -0.96344329703 0.18369552379 
-0.20779828761 -0.96279715539 0.17185359258 -0.22154208279 -0.96202051383 0.15887450725 -0.2394902929 -0.9604866894 0.13929745864 
-0.25792482112 -0.95869687772 0.11856452547 -0.27960232986 -0.9552000318 0.090123651634 -0.30165939362 -0.9512441177 0.060446066278 
-0.32666937384 -0.94371667926 0.021146935519 -0.352028087 -0.93539765274 -0.019504193946 -0.38062062928 -0.91973816546 -0.072692517647 
-0.40940561405 -0.90292010523 -0.12699843477 -0.44037934356 -0.87292501583 -0.1940153004 -0.47149954302 -0.84122217063 -0.26201502906 
-0.50477087801 -0.78443831614 -0.34444960661 -0.53756723457 -0.72686262575 -0.42615449907 -0.56175358148 -0.65493319981 -0.49463227344 
-0.58585504718 -0.5825570273 -0.56301678143 -0.60420652237 -0.47991752138 -0.62508327435 -0.62126372714 -0.38451684917 -0.68277241746 
-0.62126372714 -0.38451684917 -0.68277241746 -0.62126372714 -0.38451684917 -0.68277241746 
FrenetTangent 3 128 double
-0.97070330194 0.054100660358 0.23411155066 -0.97070330194 0.054100660358 0.23411155066 -0.9703811711 0.059359499317 0.23417265555 
-0.96983918661 0.066551927026 0.23448409993 -0.96909721127 0.074022872006 0.23531087848 -0.96823509679 0.079816400123 0.23696020682 
-0.9673807852 0.081874183416 0.23973117134 -0.96665296188 0.078205806117 0.24385631668 -0.96606921576 0.067014981757 0.24943789323 
-0.96544171334 0.046790479671 0.25638437774 -0.96428663935 0.01638819825 0.26435336982 -0.96177710949 -0.024863257908 0.27270242034 
-0.9567696777 -0.077012241737 0.28046550315 -0.94793720422 -0.13930161285 0.28637408665 -0.93402434828 -0.21001526392 0.28895000562 
-0.91419601657 -0.28646193537 0.28667961713 -0.88837580832 -0.36519828122 0.27824205034 -0.85742035104 -0.44250441484 0.26271692839 
-0.82301236649 -0.51497944419 0.23968065559 -0.78727944707 -0.5800377624 0.20915847198 -0.75229609255 -0.63612340889 0.17145727687 
-0.71964946349 -0.68262833566 0.12697718319 -0.69017603802 -0.71963040715 0.076086225093 -0.66388182864 -0.74759391029 0.01908567273 
-0.64000303538 -0.76712658452 -0.043736918355 -0.61714578448 -0.77883731044 -0.11199787747 -0.59346163164 -0.78329089428 -0.18509096873 
-0.56686292842 -0.78101699607 -0.26206654162 -0.53524883947 -0.77256406272 -0.34154567606 -0.49674552671 -0.75856209135 -0.42169590378 
-0.44993948961 -0.73978197502 -0.5002770084 -0.39408040977 -0.71717659319 -0.57476809656 -0.32920991831 -0.69189462902 -0.64257501665 
-0.25618246209 -0.66526043063 -0.70128389798 -0.17657168515 -0.63871093204 -0.74891306925 -0.092442807594 -0.61370381774 -0.78410582922 
-0.0060611934859 -0.59160827493 -0.80620277286 0.080396788199 -0.57360734668 -0.81517542178 0.16510153502 -0.56062607114 -0.81144309196 
0.24671078585 -0.55329589742 -0.79561136118 0.32439946086 -0.55195792718 -0.76818450676 0.39780855322 -0.55667938444 -0.72928486748 
0.46689029249 -0.5672763083 -0.67838856478 0.5316906605 -0.58330537812 -0.61405201521 0.59200011972 -0.60396084524 -0.53363578934 
0.64678722439 -0.62780819745 -0.43303943652 0.69327508736 -0.65218135305 -0.3066417062 0.72549598372 -0.67209028661 -0.14815608072 
0.73278322488 -0.67889691013 0.046127331856 0.70055970872 -0.66050381249 0.27009407288 0.61790166621 -0.60681347113 0.49997494153 
0.49028760433 -0.5200060923 0.69943672267 0.34129979777 -0.41719868806 0.84229430885 0.19672589749 -0.31867824667 0.92722332604 
0.071235031216 -0.23679792659 0.96894391597 -0.031384278061 -0.1753903776 0.98399859885 -0.11269803188 -0.13378964595 0.9845808673 
-0.17568907906 -0.10991937247 0.97828987476 -0.2230983361 -0.10166231458 0.96948022477 -0.25696275721 -0.10721789961 0.96045534171 
-0.27863287865 -0.1250796272 0.95221783526 -0.28895051058 -0.15389920829 0.9448929231 -0.28846134782 -0.19231489241 0.93797922843 
-0.27763829419 -0.23880053105 0.93053279575 -0.25711096882 -0.29157942113 0.92134433893 -0.22786814571 -0.34861781162 0.9091434043 
-0.19137171734 -0.40771263244 0.89283104513 -0.14957025184 -0.46668295767 0.87168558367 -0.10476747891 -0.52360577891 0.84549439008 
-0.059383369353 -0.57703224351 0.81455963895 -0.015688306132 -0.62609547996 0.77958856266 0.024439754485 -0.67048860783 0.74151717793 
0.059648510655 -0.71033438768 0.70133238401 0.089146388031 -0.74599700576 0.65995559616 0.11267570289 -0.77791390574 0.61818617036 
0.13044715093 -0.80646413979 0.57671408172 0.14305781718 -0.83189906687 0.53617012551 0.15142618946 -0.8543383993 0.49716798834 
0.15671898961 -0.87379996767 0.46033984707 0.16027065536 -0.8902519409 0.42633883092 0.1635114839 -0.90365647741 0.3958143068 
0.16788901535 -0.9139906004 0.36937035737 0.17479682378 -0.92123766783 0.34751579787 0.18549555674 -0.92535108304 0.33063086902 
0.20106544084 -0.92620763196 0.31892336228 0.2223514903 -0.92355451646 0.31242098182 0.24992295242 -0.91696918768 0.31097592625 
0.28402992123 -0.9058528244 0.3142573219 0.32453232869 -0.88946479531 0.3217625608 0.37086233269 -0.86699526893 0.33283679762 
0.42198228324 -0.83769626756 0.34669282651 0.47639165453 -0.8010489666 0.36245212731 0.53219740617 -0.75694375954 0.37921242827 
0.58726121327 -0.70583363329 0.39613526667 0.63943349667 -0.648790931 0.41254712602 0.68680121231 -0.58745148415 0.42802435509 
0.72790469572 -0.52384016847 0.44243217769 0.76185655148 -0.46011954399 0.45592170402 0.78834331923 -0.39832671688 0.46888232814 
0.8075259911 -0.34019788302 0.48183729006 0.81988891345 -0.28706141436 0.4953563505 0.82608366088 -0.23981624648 0.50997446323 
0.82680298677 -0.19898033224 0.52612132483 0.82269256651 -0.1647791959 0.54408157256 0.81431142 -0.13722783871 0.56397289965 
0.80212304728 -0.11620563078 0.58574300541 0.78650885294 -0.10153844044 0.60917466244 0.76779796652 -0.093037468417 0.63390086929 
0.74629512394 -0.090542388908 0.65942828555 0.72230148777 -0.093952446053 0.68516676703 0.69613344948 -0.10322630706 0.71045235593 
0.66811912327 -0.11838881983 0.73457533614 0.6385854103 -0.13953388603 0.75679519581 0.60784054733 -0.16677048053 0.77634881068 
0.57614586434 -0.20016970278 0.79245695977 0.54370202167 -0.23970824614 0.80431838744 0.51063626325 -0.28514726241 0.81113602151 
0.47704352864 -0.33589911465 0.81215839376 0.4430454712 -0.39089639887 0.8067903791 0.40887268931 -0.44850944023 0.79477192072 
0.37498116612 -0.50655522885 0.77639611358 0.34212553585 -0.56244946401 0.75272884769 0.31136166417 -0.61353865264 0.72568880094 
0.28395632156 -0.65747677467 0.69792055294 0.2612252293 -0.69251423916 0.67244732741 0.24434496487 -0.71759392371 0.65219207201 
0.23420235273 -0.73224495894 0.63950494766 0.23420235273 -0.73224495894 0.63950494766 
FrenetNormal 3 128 double
0.055238723473 0.99847173197 -0.0016982023184 0.055238723473 0.99847173197 -0.0016982023184 0.065677117307 0.99765492144 0.019265876147 
0.083499099424 0.99450852636 0.063092720569 0.11354648553 0.98070784664 0.15912044231 0.17766851845 0.88644198296 0.4273809874 
0.23203656769 -0.093361466704 0.96821622987 0.076534214462 -0.82048775451 0.56651774792 0.033745722006 -0.9247250209 0.3791369963 
0.03019989531 -0.95703916677 0.2883816908 0.045645561531 -0.97286794682 0.22681366972 0.074768841446 -0.98187171686 0.17417678369 
0.11521665325 -0.98577482642 0.12236467794 0.16489961766 -0.98401971794 0.067181178934 0.22120423936 -0.97520757092 0.0062352312989 
0.28062480161 -0.95780093591 -0.062185913986 0.33884646701 -0.93046110819 -0.13937430874 0.39092903253 -0.89206952736 -0.22668579549 
0.43166985355 -0.84130522569 -0.32537156415 0.45599873271 -0.77603421701 -0.43570178998 0.45958473284 -0.69317348655 -0.55524084043 
0.44079586631 -0.59045731564 -0.67606150804 0.40365004309 -0.47011520542 -0.78489383763 0.3593865744 -0.34131723951 -0.86852969561 
0.32253177161 -0.21654794937 -0.92145550187 0.30469412485 -0.10531388751 -0.94660999117 0.31112543047 -0.011168852859 -0.950303227 
0.34165334528 0.066589265297 -0.93746405873 0.39319154953 0.12999153638 -0.91022118512 0.4609708444 0.18108012243 -0.86874384595 
0.53977110395 0.22101269831 -0.8122810736 0.62397189298 0.2503908273 -0.74024557437 0.70833761594 0.2690397014 -0.65259134297 
0.78796056962 0.27650560272 -0.55014797317 0.85864206359 0.27202403597 -0.43443840817 0.91684040456 0.25471221161 -0.30744977122 
0.9594297867 0.22382230609 -0.17145862384 0.98341435827 0.17904054822 -0.028994517384 0.98573324579 0.12110173598 0.11689455797 
0.96358992997 0.052720621805 0.26213542853 0.91558316963 -0.020800140728 0.4015903555 0.84315517205 -0.091565367377 0.5298161373 
0.75087885028 -0.15090455273 0.64296871477 0.6448563929 -0.19121016233 0.73999926105 0.529785042 -0.20734376683 0.82239672399 
0.40670876938 -0.19640111465 0.89219649129 0.27287242994 -0.15626264448 0.94927478789 0.12299264864 -0.085193577086 0.98874408357 
-0.047059394446 0.017064694062 0.99874631895 -0.23406156571 0.14486776057 0.96136804368 -0.42127841423 0.28139722694 0.86217173369 
-0.58278424801 0.40111473864 0.70673155209 -0.70151419763 0.48336756008 0.52367321145 -0.77956360694 0.52270738045 0.34504721005 
-0.83109022059 0.52306251101 0.18893029088 -0.87112193542 0.48749642333 0.059108467012 -0.91034552456 0.41101495317 -0.048350120815 
-0.95177688623 0.27284571395 -0.14027107761 -0.97479461887 0.024906964139 -0.22170948142 -0.88067376545 -0.38328149856 -0.27840440319 
-0.53754278911 -0.80132053448 -0.2625512348 -0.13688966018 -0.97021010023 -0.19988392217 0.13269274455 -0.97819808828 -0.15975335873 
0.29920577607 -0.94193096764 -0.15245312648 0.40831211811 -0.89689249015 -0.16989724928 0.48392858309 -0.85077124311 -0.20494247574 
0.5369551688 -0.8049412074 -0.25248524575 0.57184431748 -0.76003065303 -0.30878387752 0.5905101862 -0.7168269667 -0.37075169563 
0.59319823223 -0.67669291742 -0.43612217644 0.57980496405 -0.64090896043 -0.50305258979 0.55010430047 -0.61032297677 -0.56999221278 
0.50416593593 -0.5849485005 -0.63533610067 0.44328404105 -0.56363861386 -0.69700127111 0.37056053708 -0.54436663188 -0.75256219574 
0.29184237035 -0.52467952171 -0.79971209217 0.2147094747 -0.5027542034 -0.83733986675 0.14842414962 -0.47761332767 -0.86594213493 
0.10179075258 -0.44932689224 -0.88754942769 0.084809757817 -0.41790520956 -0.9045233777 0.11077942092 -0.38185833444 -0.91755769972 
0.20151679957 -0.33495722339 -0.92043176716 0.38729077247 -0.26016769315 -0.88448777775 0.6632931315 -0.13034091358 -0.73692161588 
0.89430036832 0.040700067015 -0.445612338 0.97098562923 0.18083831493 -0.15647495546 0.96156623326 0.27276034577 0.031498775006 
0.93051953596 0.3394589145 0.13748104805 0.8967962909 0.39749591077 0.19430237658 0.86253797418 0.4544053431 0.22258487654 
0.82627757418 0.51273289026 0.23317451328 0.78602585886 0.57273569235 0.23267396915 0.74041025383 0.63334272858 0.22509918742 
0.68863448946 0.69289719763 0.21371947373 0.63068507627 0.74950988452 0.20117471901 0.56694184316 0.80147603232 0.19029744112 
0.49822387317 0.8473845967 0.18360914325 0.42495394625 0.88625376941 0.18430518106 0.34713390571 0.91720317914 0.19554124802 
0.26388967235 0.93896654554 0.2206899798 0.17304127835 0.94900086774 0.26354139905 0.071517411375 0.94223164094 0.32723813145 
-0.043598486484 0.90985686608 0.41262532063 -0.172546271 0.83954320689 0.51516501058 -0.30833788224 0.72093825722 0.62062531341 
-0.43637722297 0.5555245965 0.70779046472 -0.54112674848 0.36207264779 0.75900279301 -0.61566609505 0.16668601109 0.77017597542 
-0.66302533486 -0.013812325373 0.74846952176 -0.68954470935 -0.17375885582 0.70309028853 -0.70048034117 -0.31441710764 0.64067868239 
-0.69887433943 -0.43863516736 0.56495473061 -0.68613634126 -0.54854293398 0.47782587915 -0.66402867305 -0.64287983964 0.38180025295 
-0.63459827659 -0.72058460939 0.27936150066 -0.60104667572 -0.78008557864 0.17380846813 -0.56737864404 -0.82058505896 0.068714156472 
-0.53666975923 -0.84312790117 -0.033480020764 -0.51148262475 -0.84930820451 -0.13061813937 -0.49250264458 -0.8416304996 -0.22158349947 
-0.4794617548 -0.82276647257 -0.30524049094 -0.47134666595 -0.79572177009 -0.38034088013 -0.46667445686 -0.76394349426 -0.44565153303 
-0.4642752003 -0.73114286407 -0.49987863598 -0.4630695772 -0.70114626538 -0.54218122544 -0.46273409937 -0.6773471321 -0.57190734907 
-0.46273390226 -0.66247015888 -0.58907607683 -0.46273390226 -0.66247015888 -0.58907607683 
FrenetBinormal 3 128 double
-0.23384563933 0.011283572611 -0.97220825853 -0.23384563933 0.011283572611 -0.97220825853 -0.23247988951 0.034075028426 -0.97200411183 
-0.22899749454 0.080769003971 -0.97007036626 -0.21899267279 0.18092190016 -0.95880627621 -0.17593946372 0.45590564058 -0.87246510073 
0.10165356696 0.99226017487 0.071318284465 0.24438609886 0.56628941063 0.78714149814 0.25606931992 0.37469004248 0.8910869068 
0.25886340889 0.28615849503 0.92255246532 0.26089798752 0.23077994934 0.93737551445 0.26342819136 0.18790888758 0.94620073873 
0.26705225453 0.1493891101 0.95203255571 0.27243930139 0.11090651633 0.95575968302 0.28047673935 0.069740824056 0.95732388257 
0.29239590287 0.023599295831 0.95600612405 0.3097926645 -0.029535428452 0.95034528645 0.33467123143 -0.091661339705 0.93786639009 
0.36920425531 -0.1643219075 0.91470570599 0.41503762237 -0.24764306615 0.87545227386 0.47205133457 -0.3389063679 0.81382431232 
0.53647334877 -0.43055628408 0.725822039 0.60060276328 -0.51100271108 0.61494109475 0.65582178047 -0.56974194801 0.49526952757 