# vtk DataFile Version 4.2
vtk output
ASCII
DATASET POLYDATA
POINTS 128 float
0 0 0 -0.334254 0.0822033 0.141912 -0.933821 0.227889 0.392239 
-1.4156 0.338822 0.580212 -1.84022 0.423156 0.7199 -2.3048 0.498473 0.84268 
-2.8044 0.562205 0.950792 -3.30307 0.604348 1.03553 -3.80121 0.616521 1.08977 
-4.30496 0.588435 1.10791 -4.80199 0.498763 1.08961 -5.27475 0.326876 1.03802 
-5.70679 0.0731078 0.966332 -6.08461 -0.2538 0.891098 -6.40812 -0.637244 0.828997 
-6.6832 -1.05849 0.794677 -6.92447 -1.50152 0.790759 -7.14863 -1.95245 0.815401 
-7.36604 -2.40414 0.86599 -7.5842 -2.85231 0.939459 -7.80765 -3.29445 1.0317 
-8.03965 -3.72888 1.13816 -8.28269 -4.15472 1.25412 -8.53878 -4.5715 1.37476 
-8.8089 -4.97949 1.49499 -9.09351 -5.37921 1.60954 -9.3928 -5.77114 1.71303 
-9.70677 -6.15562 1.8 -10.0348 -6.53268 1.86513 -10.3757 -6.90207 1.90324 
-10.7275 -7.26298 1.90958 -11.0878 -7.61432 1.87988 -11.4533 -7.95509 1.81239 
-11.8201 -8.2844 1.70676 -12.1849 -8.60192 1.56442 -12.5446 -8.90766 1.38779 
-12.8969 -9.20249 1.18019 -13.2396 -9.48774 0.945349 -13.5715 -9.76502 0.686609 
-13.8913 -10.0361 0.407018 -14.198 -10.3027 0.108974 -14.49 -10.5666 -0.205578 
-14.7656 -10.8297 -0.535394 -15.0222 -11.0935 -0.879699 -15.2564 -11.3593 -1.23811 
-15.464 -11.6284 -1.6105 -15.6383 -11.9014 -1.9968 -15.771 -12.1785 -2.39678 
-15.8548 -12.4587 -2.80782 -15.8836 -12.7403 -3.22551 -15.8541 -13.021 -3.64398 
-15.7659 -13.2977 -4.05637 -15.6228 -13.5688 -4.45715 -15.4322 -13.8334 -4.84197 
-15.2016 -14.0915 -5.20862 -14.9382 -14.3436 -5.55666 -14.6481 -14.5909 -5.88639 
-14.3364 -14.8345 -6.19867 -14.0073 -15.0758 -6.49431 -13.6638 -15.3159 -6.77403 
-13.3082 -15.5559 -7.03831 -12.9425 -15.797 -7.28741 -12.5682 -16.0403 -7.52092 
-12.1863 -16.2872 -7.73788 -11.7979 -16.5389 -7.93694 -11.4036 -16.7968 -8.11637 
-11.0048 -17.0624 -8.27244 -10.6027 -17.3379 -8.39945 -10.1991 -17.6253 -8.49146 
-9.79618 -17.9268 -8.54203 -9.4021 -18.2431 -8.53299 -9.03154 -18.5728 -8.43393 
-8.70542 -18.9037 -8.22777 -8.45143 -19.2106 -7.91496 -8.2846 -19.4716 -7.5118 
-8.20379 -19.6698 -7.05243 -8.19716 -19.8021 -6.56491 -8.23994 -19.8835 -6.06739 
-8.31257 -19.9273 -5.57056 -8.40429 -19.9432 -5.07543 -8.5079 -19.9383 -4.58235 
-8.62057 -19.9174 -4.09165 -8.73971 -19.8845 -3.60324 -8.86265 -19.844 -3.11636 
-8.98735 -19.7994 -2.63031 -9.1129 -19.7536 -2.14457 -9.23855 -19.7093 -1.65873 
-9.36371 -19.6691 -1.1724 -9.48784 -19.6358 -0.68527 -9.61054 -19.6119 -0.197214 
-9.73142 -19.6003 0.291762 -9.85019 -19.6038 0.7814 -9.96649 -19.6254 1.27121 
-10.0799 -19.668 1.76033 -10.1899 -19.7345 2.24762 -10.296 -19.8273 2.73146 
-10.3979 -19.9481 3.21005 -10.4949 -20.0982 3.6813 -10.5866 -20.2779 4.14321 
-10.6729 -20.4861 4.59404 -10.7537 -20.7214 5.03233 -10.8288 -20.9818 5.45724 
-10.8983 -21.265 5.86826 -10.9624 -21.5685 6.26545 -11.0215 -21.8897 6.64909 
-11.0757 -22.2266 7.01988 -11.1251 -22.577 7.37857 -11.1699 -22.9391 7.72601 
-11.2103 -23.3115 8.06303 -11.2462 -23.6927 8.39047 -11.2776 -24.0817 8.7091 
-11.3041 -24.4776 9.01956 -11.3254 -24.8797 9.32239 -11.3405 -25.2875 9.61783 
-11.3488 -25.7006 9.90613 -11.3501 -26.1184 10.1876 -11.344 -26.5402 10.4626 
-11.328 -26.9669 10.7307 -11.2998 -27.3983 10.9912 -11.2575 -27.8319 11.2421 
-11.2003 -28.2669 11.483 -11.1302 -28.7102 11.7198 -11.0487 -29.1619 11.9536 
-10.9533 -29.5899 12.1641 -10.8329 -29.9903 12.3438 -10.6566 -30.453 12.5312 
-10.4125 -31.0316 12.753 -10.2726 -31.3541 12.8747 
LINES 1 129
128 0 1 2 3 4 5 6 7 8 9 10 11 12 13 14 15 16 17 18 19 20 21 22 23 24 25 26 27 28 29 30 31 32 33 34 35 36 37 38 39 40 41 42 43 44 45 46 47 48 49 50 51 52 53 54 55 56 57 58 59 60 61 62 63 64 65 66 67 68 69 70 71 72 73 74 75 76 77 78 79 80 81 82 83 84 85 86 87 88 89 90 91 92 93 94 95 96 97 98 99 100 101 102 103 104 105 106 107 108 109 110 111 112 113 114 115 116 117 118 119 120 121 122 123 124 125 126 127 

CELL_DATA 1
FIELD FieldData 2
Length 1 1 double
60.540559296 
Tortuosity 1 1 double
0.70936450762 
POINT_DATA 128
SCALARS MaximumInscribedSphereRadius float
LOOKUP_TABLE default
1.24 1.24 1.24 1.24 1.24 1.24652 1.25418 1.28124 1.30868 
1.37733 1.44839 1.41353 1.36774 1.23685 1.09708 1.02562 0.963807 0.952597 
0.949586 0.989032 1.03627 1.12098 1.21333 1.27046 1.31968 1.32601 1.32177 
1.31747 1.31314 1.35143 1.40226 1.50949 1.63478 1.75977 1.88466 2.00581 
2.12556 2.24198 2.35706 2.38669 2.37898 2.34511 2.299 2.24501 2.18707 
2.15389 2.13396 2.10235 2.06404 2.01138 1.94983 1.87045 1.7793 1.71626 
1.67328 1.63785 1.60816 1.58011 1.55339 1.5183 1.47603 1.43139 1.38459 
1.38757 1.43851 1.54537 1.70961 1.91789 2.17378 2.28912 2.24464 2.17058 
2.05636 1.96343 1.89938 1.86 1.86 1.86 1.86 1.86537 1.88096 
1.90746 1.95577 2.00766 2.0672 2.11701 2.14456 2.1646 2.16628 2.16582 
2.15976 2.14111 2.08702 2.03558 1.9922 1.95612 1.94414 1.9489 2.01378 
2.07278 2.10864 2.14077 2.15677 2.17 2.17 2.17 2.17 2.17 
2.17 2.17 2.17 2.17 2.17 2.17 2.17 2.17185 2.19359 
2.21723 2.26308 2.30959 2.36744 2.42379 2.40672 2.38608 2.34476 2.30344 
2.24016 2.17 
TEXTURE_COORDINATES TCoords 2 float
0 0 0.00787402 0 0.015748 0 0.023622 0 0.0314961 
0 0.0393701 0 0.0472441 0 0.0551181 0 0.0629921 0 
0.0708661 0 0.0787402 0 0.0866142 0 0.0944882 0 0.102362 
0 0.110236 0 0.11811 0 0.125984 0 0.133858 0 
0.141732 0 0.149606 0 0.15748 0 0.165354 0 0.173228 
0 0.181102 0 0.188976 0 0.19685 0 0.204724 0 
0.212598 0 0.220472 0 0.228346 0 0.23622 0 0.244094 
0 0.251969 0 0.259843 0 0.267717 0 0.275591 0 
0.283465 0 0.291339 0 0.299213 0 0.307087 0 0.314961 
0 0.322835 0 0.330709 0 0.338583 0 0.346457 0 
0.354331 0 0.362205 0 0.370079 0 0.377953 0 0.385827 
0 0.393701 0 0.401575 0 0.409449 0 0.417323 0 
0.425197 0 0.433071 0 0.440945 0 0.448819 0 0.456693 
0 0.464567 0 0.472441 0 0.480315 0 0.488189 0 
0.496063 0 0.503937 0 0.511811 0 0.519685 0 0.527559 
0 0.535433 0 0.543307 0 0.551181 0 0.559055 0 
0.566929 0 0.574803 0 0.582677 0 0.590551 0 0.598425 
0 0.606299 0 0.614173 0 0.622047 0 0.629921 0 
0.637795 0 0.645669 0 0.653543 0 0.661417 0 0.669291 
0 0.677165 0 0.685039 0 0.692913 0 0.700787 0 
0.708661 0 0.716535 0 0.724409 0 0.732283 0 0.740157 
0 0.748031 0 0.755906 0 0.76378 0 0.771654 0 
0.779528 0 0.787402 0 0.795276 0 0.80315 0 0.811024 
0 0.818898 0 0.826772 0 0.834646 0 0.84252 0 
0.850394 0 0.858268 0 0.866142 0 0.874016 0 0.88189 
0 0.889764 0 0.897638 0 0.905512 0 0.913386 0 
0.92126 0 0.929134 0 0.937008 0 0.944882 0 0.952756 
0 0.96063 0 0.968504 0 0.976378 0 0.984252 0 
0.992126 0 1 0 
FIELD FieldData 7
Curvature 1 128 double
0 0.026547670614 0.050635508763 0.075110406873 0.10011028535 0.12559844242 0.15118140799 0.17588812518 0.19800767156 
0.21516934294 0.22481858588 0.22506553321 0.21549457836 0.19743017332 0.17342633602 0.14640779224 0.11887905166 0.092557679292 
0.068437029622 0.04705559032 0.029148351732 0.018095012213 0.021372168106 0.033392487465 0.047120229974 0.06094681592 0.074320401934 
0.086886131486 0.0982307723 0.10794258603 0.1156413476 0.12104242298 0.12404203683 0.12476609461 0.12355395005 0.1209722454 
0.11772432091 0.11460196922 0.11241572225 0.11189084874 0.11355797368 0.11776123969 0.12446828235 0.13342341896 0.14403073398 
0.15548972547 0.16677622842 0.1767264339 0.18418046122 0.18817285417 0.18813454129 0.18399775598 0.17629498556 0.16587956019 
0.15383964709 0.14133759766 0.12933619125 0.11874450081 0.11030777037 0.1046853291 0.10251601351 0.10435538518 0.11069020444 
0.12198051629 0.13874359182 0.16166915822 0.1915594101 0.22920824252 0.27476280627 0.32662246561 0.3799196852 0.42550622846 
0.45171170625 0.44975479338 0.41947183491 0.36941712149 0.31130669646 0.25436818945 0.20351750604 0.16021272177 0.12405180973 
0.09395885759 0.068776243988 0.04756575413 0.029862278912 0.016705485904 0.014472900265 0.02334944277 0.034566388074 0.045762637238 
0.056471512218 0.066537809593 0.075779594022 0.084064727709 0.091176220844 0.096920644163 0.10112563497 0.10370509693 0.1046041002 
0.10390956718 0.10174496177 0.098344043045 0.093986384143 0.088942342175 0.083530872365 0.077987525634 0.072590917133 0.067543314445 
0.063010144553 0.059153954164 0.05610335526 0.053944916754 0.05274677219 0.052517822678 0.053210770834 0.054735300225 0.056799184286 
0.059115129492 0.061170336722 0.062442368785 0.062284595679 0.060115846395 0.055493368715 0.048190155662 0.03832453159 0.026260766052 
0.012695019818 0 
Torsion 1 128 double
0 0 0.063482225255 0.08504867586 0.10532592604 0.12325823219 0.13829944037 0.15037399813 0.15984177796 
0.16745354189 0.17425972626 0.18138137847 0.18991556984 0.20089457532 0.21550670012 0.23543901293 0.26380013578 0.30759139159 
0.38478863049 0.55175768626 1.0177542006 2.1191370173 1.4661376159 0.67411822106 0.40517212375 0.29051567374 0.22827254725 
0.18861469063 0.16141327278 0.14230766946 0.12965283441 0.12269121093 0.1207044971 0.12407230607 0.13259000991 0.14600429926 
0.16346093428 0.18251001459 0.19990474311 0.2107853388 0.21128742419 0.20003951372 0.17992992712 0.15521390845 0.13050777168 
0.10871155484 0.091010031366 0.078085315784 0.06932821236 0.064275496553 0.062745049051 0.064345131927 0.069079200962 0.077202757798 
0.089328053979 0.10582064258 0.12697292808 0.15240084182 0.17963414978 0.20376489579 0.21746767677 0.21498794446 0.19529888972 
0.16330835191 0.12675546511 0.091565569328 0.061256067785 0.036517034458 0.016421300672 0.0010899197116 -0.010657197654 -0.019849658146 
-0.026806798796 -0.032214672226 -0.036308531226 -0.039189444133 -0.040462078362 -0.039637435645 -0.036250795668 -0.02881065243 -0.015265198766 
0.0099845490903 0.058858602862 0.16719492915 0.46689415721 1.4717195764 1.7966141172 0.59608528586 0.22150638033 0.096726685801 
0.045497176202 0.021019032463 0.008731401791 0.0025209582321 -0.00040322519752 -0.0015060490783 -0.0016594184721 -0.00087731227287 0.00050117979091 
0.0025002377866 0.0050373333386 0.0083523932761 0.012810835194 0.01852734656 0.025808831729 0.035234569531 0.046763957318 0.060656076898 
0.0769011545 0.094154545642 0.11145779749 0.12606262927 0.13613340065 0.13920866861 0.13456627455 0.12432372285 0.10968144371 
0.093003690327 0.07644549318 0.061280882584 0.048302213395 0.037330648924 0.028264346318 0.020708613001 0.014683416566 0.009661648532 
0 0 
Abscissas 1 128 double
0 0.50377890366 1.007557801 1.5113366785 2.0151155559 2.5188958693 3.0226764354 3.5264519586 4.0302273825 
4.5340064899 5.037785811 5.5415683748 6.0453512736 6.549128975 7.0529061342 7.5566830065 8.0604598383 8.5642394608 
9.0680195355 9.5718021987 10.075585337 10.579361021 11.083135189 11.586914079 12.09069403 12.594475322 13.098256944 
13.602022864 14.10578455 14.609567841 15.113357492 15.617140537 16.120921463 16.624713879 17.1285103 17.632274378 
18.136026268 18.639799654 19.143581793 19.647374704 20.151172324 20.654945346 21.158706861 21.662489176 22.166281896 
22.670057678 23.173824405 23.67760304 24.181388502 24.685163947 25.188933195 25.692714867 26.196504754 26.700286467 
27.20406235 27.707837107 28.211611007 28.715400455 29.219202492 29.722975983 30.226724951 30.730489835 31.234269211 
31.738061474 32.241866151 32.745652992 33.249421538 33.75318703 34.256949219 34.760721456 35.264505119 35.768292236 
36.272084043 36.775867746 37.279640454 37.783413028 38.287185389 38.790963113 39.294750057 39.798532986 40.302308274 
40.806085474 41.3098665 41.813646582 42.317424642 42.821202889 43.32498156 43.82876017 44.332538628 44.836317905 
45.340099327 45.843880383 46.347660405 46.851440548 47.355221059 47.859000932 48.362778703 48.866556952 49.370336919 
49.874116596 50.377895135 50.881676519 51.385470211 51.88925941 52.393027141 52.896793883 53.400555377 53.904318525 
54.408091505 54.911867315 55.415662113 55.919455423 56.423237378 56.927016988 57.430775923 57.934537244 58.438324168 
58.942112367 59.445915444 59.949715464 60.453462307 60.957210518 61.461025466 61.964833321 62.4686002 62.972367079 
63.476138585 63.979911541 
ParallelTransportNormals 3 128 double
0.38837197669 0 0.92150269002 0.36288236325 0.0058696458405 0.93149684259 0.33240910762 0.012306079673 0.94239893537 
0.28618877555 0.020533423349 0.95616989462 0.23996844348 0.028760767025 0.96994085388 0.189677799 0.034166007117 0.98005178004 
0.13867065395 0.039074469911 0.98951842746 0.066618779354 0.036486024944 0.99436768167 -0.0058470159058 0.033750126192 0.99912611816 
-0.06914923056 0.015820289064 0.99524352926 -0.13191969576 -0.0029912305466 0.99085951402 -0.15034247692 -0.013950444678 0.98838514707 
-0.16418324182 -0.024098356208 0.98610808556 -0.14516546402 0.0019648940895 0.98868330448 -0.12271996356 0.031805604069 0.99176470141 
-0.098979693647 0.074705449733 0.99098437552 -0.075056586828 0.11944940122 0.98965872827 -0.054971735347 0.15965276206 0.98464871129 
-0.035508788346 0.19912042049 0.9790417236 -0.020983212978 0.22701594328 0.97321634769 -0.0073632301011 0.25278895231 0.96735091591 
-0.00015612514855 0.26529272204 0.96409732643 0.0057465220339 0.27509736627 0.96137501761 0.0029173385315 0.27128043755 0.96245832074 
-0.0018741122671 0.26440239048 0.96439684291 -0.017524332586 0.24467218743 0.96900196046 -0.035851516689 0.22177359997 0.97426446182 
-0.066089153055 0.18785029826 0.97873861513 -0.099538867417 0.15095378938 0.98300016229 -0.14348755442 0.10654863348 0.98175364754 
-0.19052661545 0.059933306299 0.97888583402 -0.24135069911 0.012755659486 0.96782765985 -0.2933876821 -0.034602180996 0.95414490875 
-0.34261908767 -0.077577788659 0.93396825127 -0.39087247407 -0.11902575797 0.91152782989 -0.43268307961 -0.15433552185 0.8864872451 
-0.47206596487 -0.18733233329 0.86046688626 -0.50543867151 -0.21555708536 0.83420409483 -0.53636372554 -0.24183841042 0.80784257243 
-0.5633809129 -0.26574854047 0.78118723237 -0.58868996556 -0.28862221744 0.75440346414 -0.61236314414 -0.31191271709 0.72519491552 
-0.63527101218 -0.33539821878 0.69485198254 -0.65785240056 -0.36255463147 0.65813848507 -0.68027048144 -0.39154726045 0.61823838504 
-0.7007154376 -0.42767611407 0.56692850305 -0.72010553045 -0.46762010487 0.50951877336 -0.73075096614 -0.51234707931 0.44404933779 
-0.73638321028 -0.55981607242 0.3739593838 -0.73030284477 -0.6062899435 0.30512372275 -0.71697481394 -0.65214804135 0.23706420774 
-0.69754008081 -0.69096317798 0.18013110397 -0.67406835361 -0.72512238226 0.13055340317 -0.65114510499 -0.75227544721 0.092061446017 
-0.62861311295 -0.77443069043 0.061477491806 -0.60929174043 -0.79161632749 0.038499744315 -0.59241259734 -0.80502172265 0.021307827825 
-0.57878224986 -0.81530633235 0.0086206065091 -0.56778266794 -0.82306383482 -0.00041886396782 -0.55955620557 -0.82873373552 -0.0067452353207 
-0.55371182958 -0.83261040387 -0.01074107734 -0.55043223072 -0.83477905417 -0.012925833928 -0.5494880377 -0.83539243666 -0.013461472765 
-0.55120965159 -0.8342556442 -0.012741955077 -0.55549879197 -0.83143320054 -0.010813554767 -0.56349251181 -0.82598269182 -0.0080568442694 
-0.57528658692 -0.81783617373 -0.0044504089848 -0.59289163911 -0.8048665387 -0.0015224174834 -0.61678003952 -0.78668171819 0.00067197991103 
-0.64757412105 -0.76059562625 -0.0040614173942 -0.68622072221 -0.72552491889 -0.016672479895 -0.72055162253 -0.69063528946 -0.039623827061 
-0.74902265419 -0.65599152804 -0.076615236861 -0.76758413383 -0.63092027075 -0.10993570558 -0.77270212371 -0.61883525754 -0.1382761047 
-0.77570046174 -0.61106282118 -0.15771251567 -0.77531661181 -0.61017167788 -0.16294142287 -0.77539315331 -0.60966751694 -0.16448887831 
-0.77626091916 -0.60982842023 -0.15970942563 -0.77714903209 -0.60987543787 -0.15518187904 -0.77807587471 -0.60970567973 -0.15113382341 
-0.77886721457 -0.60953672288 -0.14774393357 -0.77938745118 -0.6093693692 -0.14567085003 -0.77963495702 -0.60929294446 -0.14467361082 
-0.77929889779 -0.60941108139 -0.1459783677 -0.77862980696 -0.6096233621 -0.14858532772 -0.77719935869 -0.61005086882 -0.15416930872 
-0.77540730238 -0.61047898537 -0.16123878583 -0.77273198676 -0.61090859147 -0.17193671715 -0.76967949551 -0.61113066145 -0.18430957242 
-0.76563924436 -0.61080922908 -0.20106877328 -0.76126374861 -0.60994974428 -0.21949431306 -0.75594462027 -0.60757577191 -0.24261019434 
-0.75042755809 -0.60432638169 -0.26696534274 -0.7443087729 -0.59841570314 -0.29508788877 -0.73817527819 -0.59148971241 -0.32372230595 
-0.73199330398 -0.58121746605 -0.35404374287 -0.72597659606 -0.57017404081 -0.38399546115 -0.72055323974 -0.55636187043 -0.41261978745 
-0.71536889508 -0.54222891589 -0.44036861061 -0.71112477806 -0.52683405582 -0.46467336634 -0.70710717917 -0.5115233834 -0.48799452055 
-0.70406897528 -0.49657671264 -0.50706288307 -0.70120532302 -0.48194406333 -0.52528170026 -0.69917584594 -0.46881210985 -0.53944057449 
-0.69726597887 -0.45605851278 -0.55296128816 -0.69599142311 -0.44531456462 -0.5630923971 -0.6947957057 -0.43494125635 -0.57275998773 
-0.69406824281 -0.42676933656 -0.57967454534 -0.69339137261 -0.41893829986 -0.58624830841 -0.69305403067 -0.41339493446 -0.59053499441 
-0.6927458766 -0.40816085619 -0.59456296572 -0.69266045144 -0.40528690858 -0.59661671815 -0.69258407564 -0.40264538825 -0.59850137088 
-0.69258749826 -0.40205344141 -0.59889488078 -0.69257662338 -0.401780874 -0.59908888754 -0.69241232408 -0.40493552204 -0.59714205419 
-0.69220830175 -0.40831225893 -0.59508105271 -0.69154060761 -0.41428135416 -0.59168741033 -0.6908569408 -0.42023228937 -0.5883171306 
-0.68989551024 -0.4258674231 -0.58535312615 -0.6888305807 -0.43184091739 -0.5822384282 -0.68271864811 -0.45431415641 -0.57177534358 
-0.67694910914 -0.47491481364 -0.56227604526 -0.67315748908 -0.48469805262 -0.5583442898 -0.66936586901 -0.49448129161 -0.55441253434 
-0.6684612431 -0.49681543147 -0.55347447414 -0.6684612431 -0.49681543147 -0.55347447414 
FrenetTangent 3 128 double
-0.95053282586 0.13854025146 0.27801788737 -0.95053282586 0.13854025146 0.27801788737 -0.95567148349 0.12394346134 0.26707683171 
-0.96313899578 0.09971060529 0.24984209013 -0.97171102956 0.065155670848 0.2270075188 -0.97969187811 0.019582652614 0.19955035375 
-0.98494424504 -0.037456115275 0.16876573581 -0.98500036824 -0.10582058893 0.13629481843 -0.9773200597 -0.18440433057 0.10411793208 
-0.95974230685 -0.27083173435 0.074463924923 -0.9310859461 -0.36141337916 0.049591635799 -0.89170329633 -0.45152648663 0.03144937512 
-0.84369065019 -0.53640684695 0.021302143802 -0.79056109174 -0.61207326623 0.01948016926 -0.7364800079 -0.67598382749 0.025358685762 
-0.68540548727 -0.72719243248 0.037556413088 -0.64046505986 -0.76606979196 0.054236343486 -0.60370382165 -0.79382387431 0.073384959639 
-0.57612418727 -0.8120530412 0.093009564633 -0.55787424873 -0.82243498348 0.11125205865 -0.54847945753 -0.82654763539 0.12644876867 
-0.5470472163 -0.82578790586 0.13716296026 -0.55242974386 -0.82133999043 0.14220407244 -0.5633492925 -0.81416067788 0.14064126434 
-0.57846605912 -0.80498570286 0.13181440221 -0.59643485252 -0.79433080805 0.11534311461 -0.61593418471 -0.78250846096 0.091135002245 
-0.63567793164 -0.7696660605 0.059394633946 -0.65443832862 -0.75583384711 0.020631761687 -0.67107267156 -0.74099183753 -0.024342682792 
-0.68457113405 -0.72513476542 -0.074444169707 -0.69410192212 -0.70833815132 -0.12837283628 -0.69905184906 -0.69080425326 -0.18470515968 
-0.69905492354 -0.67286864211 -0.24201240533 -0.6939687877 -0.65499351044 -0.29898298109 -0.68382878645 -0.63772125598 -0.35452755956 
-0.66877034362 -0.62161846561 -0.40784397838 -0.64894000948 -0.60721851791 -0.45843487608 -0.62441835808 -0.59496453216 -0.50608192969 
-0.59515013218 -0.58517927128 -0.55078266189 -0.56092165584 -0.57803750512 -0.59265465381 -0.52136102198 -0.57354881577 -0.63184210108 
-0.47598353812 -0.57154411815 -0.66841378835 -0.424268538 -0.5716800806 -0.70226639754 -0.3657738637 -0.57343920601 -0.73305999594 
-0.30028588949 -0.57615207502 -0.76018232749 -0.22797240115 -0.57903976171 -0.78277809031 -0.14952875733 -0.58127918371 -0.79984727375 
-0.066253182841 -0.58211710346 -0.8104012547 0.019986593369 -0.58097823469 -0.81367366118 0.106920813 -0.57756677671 -0.80931116277 
0.19214907054 -0.57193029904 -0.79748007356 0.27346517594 -0.56444130304 -0.77885994438 0.34911792287 -0.55572180693 -0.75451305438 
0.41794699204 -0.54653395547 -0.7256865352 0.47941646919 -0.53767144709 -0.69359156862 0.5335185042 -0.52987097182 -0.65923801384 
0.58063267512 -0.52376568643 -0.6233259198 0.62138465818 -0.51987410415 -0.58618429048 0.65650663942 -0.51860498612 -0.54776628298 
0.68673572661 -0.52027198654 -0.50765254044 0.71273149341 -0.52509801908 -0.46506546706 0.73499301094 -0.53321416436 -0.41888892178 
0.75378453714 -0.54462761162 -0.36768143308 0.76904685486 -0.55915692366 -0.30969415517 0.78027965302 -0.57633682056 -0.24289819337 
0.78639416335 -0.5952597763 -0.1650757964 0.78553630763 -0.61437183059 -0.074026773324 0.77494538064 -0.63121773274 0.031997357748 
0.75100377422 -0.6422114593 0.15348541509 0.70970099011 -0.64273907427 0.28846314676 0.6478829328 -0.62790233521 0.43126136254 
0.56520279594 -0.59414788626 0.57230593978 0.465692563 -0.54128383605 0.70010159663 0.35740251349 -0.47332439796 0.80512574027 
0.24975694694 -0.39717085407 0.88310632436 0.15047137136 -0.32002206737 0.93538454274 0.064005014927 -0.24740559915 0.96679564934 
-0.0081957334369 -0.18261464027 0.98315040717 -0.066656539007 -0.1271152519 0.98964570354 -0.11287529984 -0.081227074531 0.99028345894 
-0.14866537519 -0.04466997156 0.98787813006 -0.17581763693 -0.016917167697 0.98427738366 -0.19594050436 0.0026222001138 0.98061227956 
-0.21041627852 0.014510869665 0.97750418127 -0.22039951109 0.01924632182 0.97521978785 -0.22682819593 0.017263277711 0.97378177677 
-0.23044707256 0.0089386711129 0.97304380524 -0.23183114203 -0.0053922878211 0.97274109856 -0.23141456169 -0.025410293869 0.97252332497 
-0.22951421865 -0.05078577435 0.97197943834 -0.22634598495 -0.081148410305 0.97066082161 -0.22206138945 -0.11605096345 0.96810170602 
-0.21676552644 -0.15494984343 0.96384814809 -0.21053474426 -0.19719381751 0.957491368 -0.20343701776 -0.24201591548 0.94870526322 
-0.1955456782 -0.28855764117 0.93728137475 -0.18695168497 -0.33591185452 0.92315345067 -0.17775850794 -0.38316732153 0.90641310481 
-0.16808281564 -0.4294658424 0.88730336261 -0.15804559526 -0.47405307621 0.86619586166 -0.14776570399 -0.51631639123 0.84355360284 
-0.13734405205 -0.5558138923 0.81988263093 -0.12685193905 -0.59227064052 0.79569094122 -0.11632586467 -0.62557108722 0.77144611481 
-0.10576417081 -0.65573265549 0.7475484096 -0.095119947007 -0.68287821888 0.72431314627 -0.084306784449 -0.70721156393 0.7019573847 
-0.073200540688 -0.72897989439 0.68061001639 -0.061640355552 -0.74845353976 0.66031641308 -0.049439198044 -0.76590952159 0.64104474917 
-0.036384474254 -0.78161059024 0.62270462922 -0.022254004787 -0.79579450509 0.60515771906 -0.006820222539 -0.80866171145 0.5882344099 
0.010126226516 -0.82036947193 0.571744164 0.028759027799 -0.83103054183 0.55548281419 0.049186427961 -0.84069534053 0.5392699136 
0.07140204605 -0.84935909752 0.5229635468 0.095238737911 -0.85696961922 0.50649052759 0.12032074727 -0.86344415816 0.48988478596 
0.14603551402 -0.86870133391 0.47331978737 0.171527645 -0.87269882913 0.45713785737 0.19574578658 -0.87547660895 0.44184193352 
0.21752598841 -0.87717884057 0.42806509553 0.2357138379 -0.87804680301 0.41650065829 0.24928816148 -0.87837426444 0.40781621365 
0.25747085401 -0.87844142025 0.40255363683 0.25747085401 -0.87844142025 0.40255363683 
FrenetNormal 3 128 double
-0.28207894749 -0.75977406986 -0.58581125813 -0.28207894749 -0.75977406986 -0.58581125813 -0.26105608663 -0.7761870712 -0.57391928887 
-0.22683160264 -0.80029970752 -0.55503855919 -0.17919475771 -0.8295115568 -0.52896107224 -0.1181218313 -0.86055661443 -0.49546901652 
-0.044040033952 -0.88966807637 -0.45447903065 0.041882760499 -0.91287706861 -0.40608040087 0.13746645382 -0.92643306772 -0.35046361453 
0.23933032467 -0.9272701909 -0.28790795191 0.34294954636 -0.91353240477 -0.21873306583 0.44306297208 -0.88496805122 -0.14327159902 
0.53439054371 -0.8429741886 -0.061816374491 0.61238312834 -0.7901477591 0.025562138391 0.67360639251 -0.72941920656 0.11917235028 
0.71553429251 -0.66305957616 0.21991515344 0.73573794171 -0.59178854615 0.32935694584 0.73034648124 -0.51382053216 0.45009163298 
0.69078857107 -0.4229186489 0.58647332973 0.59376555825 -0.30186855037 0.74586717325 0.35930742557 -0.096425078012 0.92822431463 
-0.25535758372 0.32066582845 0.91212166453 -0.80072626174 0.57029956144 0.18329174554 -0.80672030264 0.50526388934 -0.30644861793 
-0.72277129788 0.43091524291 -0.54029038894 -0.63254183374 0.37668267528 -0.67675770458 -0.54408572178 0.3388718787 -0.76755232863 
-0.45801194296 0.31410417909 -0.8316030452 -0.37370344928 0.29960916149 -0.8778269091 -0.29055868876 0.29306540181 -0.91087228449 
-0.20798881748 0.2921865118 -0.9334707784 -0.12536409564 0.29453930156 -0.94738083333 -0.042155542949 0.29766662078 -0.95373869224 
0.041948937786 0.29927443895 -0.9532445105 0.12783842358 0.29656335838 -0.94641825422 0.21573136979 0.28745424203 -0.9331827446 
0.30631945576 0.26946107212 -0.91299459014 0.39898695291 0.24144790687 -0.88459726412 0.49241053551 0.20311001203 -0.84633219691 
0.58362986868 0.15640407589 -0.79681487275 0.66881827464 0.10549725378 -0.73590246973 0.74445276755 0.056209625305 -0.66530485863 
0.8086985763 0.014232032386 -0.58805107086 0.86175538818 -0.016672868458 -0.50704996441 0.90483316982 -0.034684502548 -0.42435117541 
0.93936530687 -0.040269861288 -0.34054538395 0.96613980168 -0.034749939861 -0.25566838931 0.98532225683 -0.020228621997 -0.1695017789 
0.99663167524 0.00073296361464 -0.082004674691 0.99964757989 0.025834074493 0.0061087324503 0.99419687138 0.052400904236 0.09395065818 
0.98051127718 0.077981704757 0.18032329033 0.95925560352 0.10023844023 0.26416082641 0.93136466009 0.11699411309 0.3447785484 
0.89776650146 0.12620703918 0.42200366364 0.85901662057 0.12577875413 0.49625613407 0.81506428062 0.11392518328 0.5680592144 
0.76496204009 0.088838221342 0.63791915447 0.70700961832 0.049617091035 0.70546122776 0.63935070437 -0.0027865249125 0.76891021069 
0.56124756118 -0.064309748616 0.82514570308 0.47452994516 -0.12731339483 0.87098371434 0.38324862567 -0.18295396359 0.90534432021 
0.2922033135 -0.22336517509 0.92990602866 0.20408252869 -0.24435178283 0.94796757735 0.11888254545 -0.24461472396 0.96230482551 
0.034501117298 -0.22449042653 0.9738653507 -0.052123571188 -0.18489294019 0.98137542969 -0.14354193339 -0.12647109464 0.9815298139 
-0.24078787645 -0.049921652103 0.96929305538 -0.34300471987 0.04240616411 0.93837597976 -0.44564962934 0.14671038827 0.88310388395 
-0.5415055903 0.25615981482 0.80072082835 -0.62232477792 0.36214319598 0.69394825195 -0.68198750541 0.45670971453 0.57123487211 
-0.71885751833 0.53497033123 0.4439038331 -0.73541442787 0.59609143062 0.32224311572 -0.73680255782 0.64168400755 0.21298738281 
-0.72834694041 0.67475026996 0.119259413 -0.71535351665 0.69753444573 0.041413080501 -0.70237146102 0.71147975986 -0.02169981694 
-0.69464796599 0.71572002037 -0.072173788815 -0.69924369585 0.7059328397 -0.11277002992 -0.72887284193 0.66858777499 -0.14742715976 
-0.8110720759 0.55563667793 -0.18283864423 -0.96308601257 0.15413374222 -0.22069916607 -0.67309453993 -0.72541621122 -0.14392727612 
-0.20356747227 -0.97827487517 -0.039224391009 -0.022265727107 -0.99969322956 -0.010848233498 0.053965375063 -0.99845493889 -0.013246633232 
0.092023924594 -0.99529646713 -0.030274408573 0.11411951752 -0.99186989544 -0.056310267637 0.12848589276 -0.98771593439 -0.088930356587 
0.1395730459 -0.98209903386 -0.12649447634 0.14900401326 -0.97447319407 -0.16792795501 0.15803511583 -0.96437933706 -0.21212589754 
0.16684249718 -0.95158825414 -0.25815378309 0.17573113409 -0.93599932422 -0.30499808781 0.18488868474 -0.91768323875 -0.35167264262 
0.19432994888 -0.89688167376 -0.39728973588 0.20432378881 -0.87393569802 -0.44100814623 0.21487584501 -0.84930311051 -0.48219560109 
0.22658571672 -0.8234085661 -0.52024729336 0.23986253782 -0.79668017336 -0.55476721634 0.25549184587 -0.76942824814 -0.58540933342 
0.27419379533 -0.74185186366 -0.61194246052 0.29731891907 -0.71388952749 -0.63400568049 0.3254008672 -0.68538343883 -0.65143212801 
0.36000904581 -0.65574114694 -0.66362416709 0.40123399303 -0.62434577201 -0.67022655857 0.44916776547 -0.59031327974 -0.67065531402 
0.50259424472 -0.55289009051 -0.66461385254 0.55889330361 -0.51179123607 -0.65246303026 0.61538425144 -0.46706076905 -0.63494603006 
0.66795383806 -0.41994836821 -0.61439485534 0.71430351471 -0.37165431417 -0.59299541283 0.7531336286 -0.32341497662 -0.57288086926 
0.7836666779 -0.27658598101 -0.55620745505 0.8067292995 -0.23164168221 -0.54362668109 0.82295093232 -0.18923928503 -0.53566804647 
0.83376313723 -0.14943815639 -0.53151412813 0.84006963977 -0.11283255398 -0.53061456359 0.84310183232 -0.079879510563 -0.53178808198 
0.84371023395 -0.051523193658 -0.53432050461 0.8430111783 -0.028484038589 -0.5371413341 0.84180005009 -0.011649748001 -0.53966374628 
0.84078747927 -0.0016498515252 -0.54136281059 0.84078747927 -0.0016498515252 -0.54136281059 
FrenetBinormal 3 128 double
0.13007234277 -0.63525582366 0.76126948195 0.13007234277 -0.63525582366 0.76126948195 0.1361680406 -0.61820033072 0.77413604478 
0.14460532096 -0.59125136222 0.79341737302 0.15384054681 -0.55467586543 0.81772108354 0.1620217792 -0.50897822456 0.8453934646 
0.1671685065 -0.45506895447 0.87462388323 0.16739208149 -0.39428094116 0.90361630712 0.16108530345 -0.32820239777 0.93077103044 
0.14702278783 -0.2584959666 0.95475867899 0.12435662276 -0.18665185454 0.97452373782 0.092522613952 -0.11382170351 0.98918359556 
0.051115883918 -0.040770232978 0.99786018786 -0.0002536894493 0.032137759026 0.99948341661 -0.062061469025 0.10484982631 0.99254969044 
-0.13501849602 0.17760395437 0.97479579458 -0.22021396012 0.25084535175 0.94264649857 -0.31958678487 0.32531848597 0.88996189223 
-0.43691197159 0.4021314147 0.80461062285 -0.57984375864 0.48215772964 0.65673825784 -0.75502877998 0.55454595009 0.34987187746 