# vtk DataFile Version 4.2
vtk output
ASCII
DATASET POLYDATA
POINTS 128 float
0 0 0 -0.280587 0.180629 -0.045564 -0.846827 0.506164 -0.137398 
-1.35497 0.708204 -0.21887 -1.80827 0.798432 -0.286515 -2.29462 0.855151 -0.349653 
-2.80426 0.870612 -0.401835 -3.30706 0.820785 -0.433361 -3.79726 0.710924 -0.438631 
-4.27487 0.553249 -0.413369 -4.73327 0.352171 -0.353908 -5.1647 0.110503 -0.257656 
-5.5657 -0.164983 -0.126559 -5.93478 -0.46666 0.0355011 -6.27361 -0.78905 0.221975 
-6.5853 -1.12779 0.425214 -6.87514 -1.48078 0.636358 -7.14915 -1.84691 0.846083 
-7.41319 -2.22623 1.04481 -7.67341 -2.61942 1.22084 -7.93807 -3.02811 1.34999 
-8.21411 -3.45132 1.40333 -8.49441 -3.86809 1.35265 -8.7665 -4.25198 1.17669 
-9.02003 -4.59405 0.899811 -9.24704 -4.89474 0.56339 -9.44991 -5.16847 0.19365 
-9.63484 -5.43463 -0.191007 -9.8027 -5.70422 -0.581234 -9.95148 -5.98402 -0.972129 
-10.0759 -6.27748 -1.36148 -10.1689 -6.58579 -1.7486 -10.2204 -6.90452 -2.1349 
-10.2199 -7.22626 -2.52251 -10.1632 -7.54216 -2.91096 -10.0501 -7.84328 -3.29826 
-9.88702 -8.12676 -3.68145 -9.68347 -8.39332 -4.05708 -9.44737 -8.64638 -4.42243 
-9.18534 -8.89091 -4.77519 -8.90059 -9.13227 -5.11259 -8.59446 -9.37582 -5.43135 
-8.27007 -9.62458 -5.72499 -7.93062 -9.88093 -5.98465 -7.56693 -10.1566 -6.19676 
-7.16617 -10.4665 -6.34014 -6.77111 -10.7879 -6.33852 -6.4594 -11.0735 -6.09048 
-6.27901 -11.2815 -5.64347 -6.25234 -11.3786 -5.14078 -6.3446 -11.3868 -4.64403 
-6.48596 -11.3624 -4.15837 -6.64828 -11.3297 -3.68414 -6.83312 -11.2898 -3.21904 
-7.03613 -11.2501 -2.7602 -7.24831 -11.2221 -2.30453 -7.46392 -11.2164 -1.85006 
-7.67969 -11.242 -1.39591 -7.89093 -11.3096 -0.943827 -8.09178 -11.4303 -0.497825 
-8.27702 -11.6104 -0.0648788 -8.44216 -11.8512 0.345729 -8.58462 -12.1485 0.727254 
-8.70355 -12.4928 1.07542 -8.79898 -12.8748 1.38948 -8.87163 -13.2853 1.67194 
-8.92148 -13.7162 1.92724 -8.94775 -14.1608 2.16158 -8.94915 -14.6133 2.38183 
-8.92391 -15.0682 2.59546 -8.87037 -15.5203 2.80972 -8.78706 -15.9643 3.03165 
-8.67331 -16.3942 3.26761 -8.52943 -16.8034 3.52324 -8.35736 -17.1858 3.80201 
-8.16086 -17.5366 4.1049 -7.94405 -17.8538 4.43036 -7.7113 -18.1386 4.77399 
-7.46547 -18.3946 5.1307 -7.20744 -18.6272 5.49477 -6.93716 -18.8413 5.86116 
-6.65352 -19.0407 6.22573 -6.35541 -19.2274 6.58541 -6.04183 -19.4009 6.93852 
-5.71242 -19.5592 7.28433 -5.36773 -19.6988 7.6233 -5.00908 -19.8157 7.95637 
-4.6389 -19.9057 8.28514 -4.26025 -19.9656 8.6112 -3.87702 -19.9935 8.93618 
-3.4931 -19.9889 9.26152 -3.11216 -19.9535 9.58844 -2.73727 -19.8898 9.91797 
-2.37049 -19.8015 10.2509 -2.01331 -19.6929 10.5882 -1.66635 -19.5685 10.9306 
-1.32992 -19.4327 11.2791 -1.0038 -19.2902 11.6346 -0.687373 -19.1456 11.9979 
-0.379369 -19.0038 12.3695 -0.0775588 -18.8693 12.7488 0.222096 -18.7465 13.1338 
0.525342 -18.6389 13.5205 0.841094 -18.5487 13.9018 1.17765 -18.4769 14.2693 
1.541 -18.423 14.6132 1.93354 -18.3861 14.9262 2.35 -18.3644 15.2084 
2.78391 -18.357 15.463 3.22866 -18.3639 15.6984 3.67804 -18.3859 15.9234 
4.12696 -18.4248 16.1471 4.5703 -18.4828 16.3779 5.00227 -18.5623 16.6236 
5.41626 -18.6653 16.8912 5.80365 -18.7935 17.186 6.15588 -18.9474 17.5116 
6.46554 -19.1257 17.867 6.72737 -19.3256 18.2489 6.94197 -19.5412 18.6494 
7.11229 -19.7683 19.0617 7.24524 -20.0105 19.4868 7.34766 -20.267 19.9205 
7.42327 -20.5167 20.3365 7.47892 -20.7556 20.7286 7.53582 -21.0621 21.1872 
7.6026 -21.448 21.7187 7.63662 -21.6479 21.986 
LINES 1 129
128 0 1 2 3 4 5 6 7 8 9 10 11 12 13 14 15 16 17 18 19 20 21 22 23 24 25 26 27 28 29 30 31 32 33 34 35 36 37 38 39 40 41 42 43 44 45 46 47 48 49 50 51 52 53 54 55 56 57 58 59 60 61 62 63 64 65 66 67 68 69 70 71 72 73 74 75 76 77 78 79 80 81 82 83 84 85 86 87 88 89 90 91 92 93 94 95 96 97 98 99 100 101 102 103 104 105 106 107 108 109 110 111 112 113 114 115 116 117 118 119 120 121 122 123 124 125 126 127 

CELL_DATA 1
FIELD FieldData 2
Length 1 1 double
58.364061954 
Tortuosity 1 1 double
0.83617083643 
POINT_DATA 128
SCALARS MaximumInscribedSphereRadius float
LOOKUP_TABLE default
0.93 1.10082 1.27163 1.38076 1.48499 1.40059 1.31326 1.27633 1.2422 
1.29567 1.35518 1.53178 1.71866 1.74006 1.74377 1.65493 1.55431 1.45501 
1.35591 1.35432 1.3695 1.40952 1.45439 1.37179 1.26185 1.258 1.27885 
1.3915 1.52782 1.62875 1.71957 1.68298 1.60639 1.51579 1.42039 1.35211 
1.29391 1.28411 1.29379 1.34359 1.41091 1.4918 1.5791 1.60305 1.59447 
1.57801 1.55736 1.55194 1.55497 1.58803 1.63715 1.70217 1.77654 1.77661 
1.73046 1.69199 1.65867 1.69093 1.77032 1.82029 1.84768 1.83891 1.80058 
1.73479 1.64514 1.58862 1.56284 1.55 1.55 1.55316 1.55967 1.59452 
1.66153 1.73234 1.80776 1.85354 1.8609 1.83693 1.76958 1.69895 1.62345 
1.57132 1.55644 1.52705 1.47278 1.43156 1.41437 1.44938 1.58811 1.72754 
1.86849 1.99396 2.08354 2.12677 2.0534 1.99382 1.97198 2.00236 2.18895 
2.3225 2.28192 2.21142 2.03259 1.85831 1.70231 1.53909 1.34363 1.18092 
1.182 1.21946 1.46348 1.66924 1.62501 1.57017 1.43433 1.30882 1.2769 
1.24169 1.17048 1.101 1.05562 1.01659 1.08411 1.15217 1.25907 1.36601 
1.47351 1.581 
TEXTURE_COORDINATES TCoords 2 float
0 0 0.00787402 0 0.015748 0 0.023622 0 0.0314961 
0 0.0393701 0 0.0472441 0 0.0551181 0 0.0629921 0 
0.0708661 0 0.0787402 0 0.0866142 0 0.0944882 0 0.102362 
0 0.110236 0 0.11811 0 0.125984 0 0.133858 0 
0.141732 0 0.149606 0 0.15748 0 0.165354 0 0.173228 
0 0.181102 0 0.188976 0 0.19685 0 0.204724 0 
0.212598 0 0.220472 0 0.228346 0 0.23622 0 0.244094 
0 0.251969 0 0.259843 0 0.267717 0 0.275591 0 
0.283465 0 0.291339 0 0.299213 0 0.307087 0 0.314961 
0 0.322835 0 0.330709 0 0.338583 0 0.346457 0 
0.354331 0 0.362205 0 0.370079 0 0.377953 0 0.385827 
0 0.393701 0 0.401575 0 0.409449 0 0.417323 0 
0.425197 0 0.433071 0 0.440945 0 0.448819 0 0.456693 
0 0.464567 0 0.472441 0 0.480315 0 0.488189 0 
0.496063 0 0.503937 0 0.511811 0 0.519685 0 0.527559 
0 0.535433 0 0.543307 0 0.551181 0 0.559055 0 
0.566929 0 0.574803 0 0.582677 0 0.590551 0 0.598425 
0 0.606299 0 0.614173 0 0.622047 0 0.629921 0 
0.637795 0 0.645669 0 0.653543 0 0.661417 0 0.669291 
0 0.677165 0 0.685039 0 0.692913 0 0.700787 0 
0.708661 0 0.716535 0 0.724409 0 0.732283 0 0.740157 
0 0.748031 0 0.755906 0 0.76378 0 0.771654 0 
0.779528 0 0.787402 0 0.795276 0 0.80315 0 0.811024 
0 0.818898 0 0.826772 0 0.834646 0 0.84252 0 
0.850394 0 0.858268 0 0.866142 0 0.874016 0 0.88189 
0 0.889764 0 0.897638 0 0.905512 0 0.913386 0 
0.92126 0 0.929134 0 0.937008 0 0.944882 0 0.952756 
0 0.96063 0 0.968504 0 0.976378 0 0.984252 0 
0.992126 0 1 0 
FIELD FieldData 7
Curvature 1 128 double
0 0.042994897647 0.080476973102 0.1157246696 0.14748964277 0.17434150047 0.19485809842 0.20789415387 0.21283994339 
0.20977184648 0.19947333472 0.18338265808 0.16350075877 0.1424450631 0.12380157076 0.11252076114 0.11380478109 0.12926853908 
0.15536384542 0.18631874395 0.21601414618 0.23851397428 0.24921539152 0.24652086685 0.23259834468 0.21229124734 0.19110648505 
0.17341789387 0.1617111992 0.15633531793 0.1559915361 0.1586109843 0.16205038137 0.16471973088 0.16579921536 0.16544598588 
0.16476475838 0.16590015912 0.17187472538 0.18659710325 0.21505551321 0.2639511262 0.34303074093 0.4656684996 0.64301191185 
0.85954878225 1.0315617529 1.0363188298 0.86253379463 0.6284403286 0.4287130875 0.2853823363 0.18828558834 0.12502657789 
0.090488738413 0.084582752325 0.099350977938 0.12205827973 0.14531710484 0.16520144 0.17932301719 0.18616187892 0.18536848558 
0.1777690662 0.16514801557 0.1498430202 0.13434242044 0.12104295513 0.11192405209 0.10805773883 0.10914796796 0.11362601837 
0.11943364634 0.12466032987 0.12807877333 0.12907662574 0.1276673785 0.1244022652 0.12007053289 0.11550749437 0.11140313874 
0.10813440513 0.10582674682 0.1043878672 0.1034663847 0.1027777918 0.10188153853 0.10044607839 0.098076703454 0.094527656056 
0.089554679104 0.083055554438 0.075050412828 0.065606779265 0.054817489562 0.042843848669 0.029794650702 0.015826866357 0.0018404055326 
0.014328819717 0.02953286008 0.044150105688 0.057365328305 0.068254342985 0.075977779028 0.080074156312 0.080586523953 0.078491524786 
0.075669070998 0.074802153179 0.078502958145 0.087668204426 0.10112307156 0.11657573701 0.13161743606 0.14404120378 0.1521022771 
0.15466015043 0.15140105609 0.14273908034 0.12970493581 0.11355191794 0.095452965485 0.076338276369 0.056773230589 0.037102921228 
0.017439462859 0 
Torsion 1 128 double
0 0 0.029788941302 0.039184938888 0.046926291191 0.051672880483 0.051949667578 0.046095112054 0.032213487897 
0.0079657726881 -0.030040024172 -0.0874442306 -0.17380268497 -0.30279324816 -0.47989897891 -0.65262571449 -0.68385735953 -0.54376522523 
-0.36543374798 -0.22648192249 -0.12921821709 -0.058197509023 -0.00030746681437 0.05388281539 0.1102111997 0.17047882715 0.23010086022 
0.27613511967 0.29249663208 0.27301037197 0.23001232434 0.18361886915 0.14890548184 0.13286001921 0.1373148162 0.161548668 
0.20247742794 0.25322876713 0.30072458088 0.32830133736 0.32656918199 0.29881202299 0.25801280712 0.21552974333 0.17756992807 
0.14763009057 0.12917953547 0.12540816897 0.13745698182 0.16602390841 0.21687755814 0.30760853107 0.47711372218 0.78924023341 
1.1732367728 1.0983032396 0.67355647552 0.38621013034 0.24073862404 0.16954082332 0.1371914254 0.1281595131 0.1364287836 
0.1601393351 0.19970870802 0.25595588587 0.32687891374 0.40169614013 0.4552630553 0.45969319933 0.41054819405 0.33222993659 
0.25109983464 0.18018837552 0.12161842038 0.073593233326 0.034053441923 0.0022436347444 -0.020999904683 -0.033770065983 -0.034349201358 
-0.022470528249 -4.0098613985e-05 0.028597562919 0.058694438877 0.08642927193 0.10960695721 0.12718125155 0.13999317482 0.14912706016 
0.1553341567 0.16005878544 0.16401982064 0.16734824997 0.17091684319 0.17704665596 0.19736439349 0.3212206319 13.904384777 
0.33053083678 0.13549082787 0.080015897614 0.039523235886 -0.0013654467952 -0.050140187234 -0.11206613669 -0.19393390441 -0.30046089161 
-0.4226169749 -0.51848203409 -0.52672216125 -0.44528493224 -0.33375800592 -0.23612305864 -0.16308620031 -0.11050955841 -0.072148930014 
-0.043556656752 -0.021620294481 -0.0044983527422 0.0088205635371 0.018142879844 0.023646701377 0.025185825304 0.023079828671 0.018214877164 
0 0 
Abscissas 1 128 double
0 0.50299978215 1.0059995643 1.5089988128 2.011998019 2.5150006634 3.0180033609 3.5210007944 4.0239979343 
4.5269967968 5.0299957781 5.5329948035 6.0359938328 6.5389941908 7.0419946909 7.5449948389 8.0479949421 8.5509942221 
9.0539933791 9.556993397 10.059993563 10.562993745 11.065993931 11.568994065 12.071994189 12.574992693 13.077990821 
13.580990178 14.083989853 14.586992238 15.089995398 15.592996606 16.095997203 16.598995775 17.101993653 17.604995833 
18.107999614 18.611000883 19.11400114 19.617003189 20.12000602 20.623007706 21.126008853 21.629011086 22.132013877 
22.635011079 23.138005302 23.641002052 24.144000202 24.646999095 25.149998386 25.652998478 26.155999041 26.659000501 
27.16200252 27.665002984 28.168002408 28.670998774 29.173992943 29.676994413 30.180001489 30.683012291 31.186026135 
31.689020833 32.191998884 32.694990915 33.19799592 33.700989131 34.203970645 34.706979948 35.210018744 35.713022442 
36.215986319 36.718966562 37.221966665 37.724965686 38.227963305 38.73096678 39.233978369 39.736987458 40.239992836 
40.742991623 41.245979904 41.748976308 42.251986632 42.754990674 43.257983133 43.760977755 44.263976676 44.766976103 
45.269976614 45.772977339 46.27597856 46.778982391 47.281992786 47.784999152 48.287994492 48.790988347 49.29397776 
49.796967913 50.299960499 50.802956026 51.305962208 51.808969843 52.311983309 52.814994007 53.317992355 53.820991959 
54.323997843 54.827002618 55.330001095 55.832999847 56.336000391 56.839000168 57.341994082 57.844988736 58.347990075 
58.850991431 59.353992958 59.856994335 60.359993602 60.862992921 61.36599311 61.868992886 62.371962695 62.874935713 
63.377948634 63.880961554 
ParallelTransportNormals 3 128 double
-0.16014314249 0 0.98709380198 -0.15702092323 -0.0013597042252 0.98758790484 -0.15389870397 -0.0027194084504 0.98808200771 
-0.13506372695 -0.0061522375368 0.99061679063 -0.1149829186 -0.0097494403089 0.99331337477 -0.075192776812 -0.0078648791238 0.99629523459 
-0.035098022894 -0.0058955960583 0.99928150341 0.022692588692 0.0095873170983 0.99781817793 0.081469852845 0.025823697991 0.99610676028 
0.14582070171 0.057426718082 0.98487572266 0.21055561169 0.090088612993 0.97298871298 0.26239869699 0.12783812656 0.95412732821 
0.31310997462 0.16603429575 0.93465364445 0.34125049401 0.19342349162 0.91899069229 0.36697842773 0.21965753139 0.9037350688 
0.37004319931 0.22282327038 0.90189673449 0.37022203835 0.22305148637 0.90176696103 0.34442536973 0.18525294525 0.91864678685 
0.31475185828 0.14177891308 0.93806529426 0.23640872087 0.023204857776 0.95840058516 0.14969854174 -0.10828002261 0.97889348496 
0.028572342728 -0.28360651911 0.9303700468 -0.099269355799 -0.46748770476 0.86837964803 -0.1766032421 -0.57431934986 0.7870914126 
-0.24310267407 -0.6646230621 0.70166358923 -0.26755369261 -0.69878857986 0.66231746885 -0.28221213179 -0.71988017448 0.63370323339 
-0.2846238784 -0.72311181169 0.62935888852 -0.28387675173 -0.72173670779 0.63127464271 -0.28354151525 -0.72089855863 0.63238298305 
-0.28332390512 -0.72021375138 0.63326074456 -0.28368352899 -0.73437029262 0.61593697555 -0.28422432409 -0.75318495433 0.59290045596 
-0.2770564932 -0.78061949076 0.55810448048 -0.26724493795 -0.81101027032 0.51927552171 -0.25424398454 -0.83400881045 0.48834463321 
-0.24005684516 -0.85425806362 0.4603511579 -0.23181251848 -0.86415140918 0.44652185444 -0.22596283067 -0.86987187227 0.43839996229 
-0.23015385401 -0.86674578511 0.44225842587 -0.23873000011 -0.85975610619 0.45134912147 -0.26359026912 -0.84060089992 0.47098986116 
-0.29612490453 -0.81571233515 0.49560261589 -0.37328815814 -0.75533371305 0.52427430085 -0.47336868101 -0.67673056971 0.5550302896 
-0.639736016 -0.53015388824 0.47732734202 -0.84144627777 -0.34733494822 0.3417960554 -0.93343848019 -0.24417031731 0.1514270079 
-0.96459453535 -0.1851721737 -0.069348320162 -0.96338733177 -0.16497531789 -0.19723381789 -0.94487173405 -0.16553001825 -0.27544033224 
-0.9287554204 -0.16754856467 -0.32844317298 -0.91404973664 -0.17042776158 -0.36662782013 -0.90319133117 -0.17210727423 -0.39276159164 
-0.89472561327 -0.1730406829 -0.4114007193 -0.88877188895 -0.17306405374 -0.42432006448 -0.88450203653 -0.17247739629 -0.43340525139 
-0.88153152718 -0.17150794795 -0.43984680535 -0.87949451265 -0.17026348886 -0.44438907826 -0.87765086496 -0.1683515062 -0.44873722372 
-0.87595572654 -0.16592685319 -0.45293627574 -0.87474928557 -0.16358694847 -0.45611825125 -0.87394214889 -0.16131628979 -0.45846919518 
-0.87397202623 -0.16250583989 -0.45797748151 -0.87472959447 -0.16670365792 -0.45501439224 -0.87569824461 -0.1791684728 -0.4479316276 
-0.87686278239 -0.19930520277 -0.43702573347 -0.87622681536 -0.22989656853 -0.42165829916 -0.87380506769 -0.27085707418 -0.40186581025 
-0.86704179679 -0.32060524274 -0.3769288785 -0.85567081203 -0.37967986979 -0.34653208409 -0.83852703354 -0.44224072673 -0.31042540934 
-0.81483372965 -0.50875688716 -0.26784058762 -0.78744963557 -0.57083853471 -0.22214060055 -0.75558670214 -0.62753882225 -0.1726603051 
-0.72446570586 -0.6756473584 -0.12540583575 -0.69430601997 -0.71262376547 -0.081035316637 -0.66655209483 -0.74332232819 -0.040999503777 
-0.6421309454 -0.76532399642 -0.0069686953102 -0.61862176676 -0.78467412145 0.024664153121 -0.59646672035 -0.80008712468 0.052736410607 
-0.57252128679 -0.81512826191 0.081496444451 -0.54572173209 -0.82957659407 0.11135288756 -0.51552608223 -0.84383921122 0.14320224799 
-0.47951012864 -0.85778354583 0.17846711462 -0.44072821461 -0.8703013921 0.21507081638 -0.39684608321 -0.88018890407 0.25414322668 
-0.35288538894 -0.88761676335 0.29275941863 -0.30876859628 -0.89015748299 0.33046914 -0.26743640515 -0.89071544858 0.36594042308 
-0.23207382162 -0.88702280109 0.39661295915 -0.20066372571 -0.88277988693 0.42420066094 -0.17841636336 -0.8772613339 0.44463704006 
-0.1599464604 -0.87238957252 0.46181061784 -0.1509751334 -0.8691441952 0.47077974842 -0.14516916301 -0.86709865657 0.47650460729 
-0.14802554027 -0.86833660892 0.47335115869 -0.15320794363 -0.87062235549 0.46730072417 -0.16534703723 -0.87604185014 0.45258597005 
-0.17828026209 -0.88158900296 0.43674055103 -0.19382079407 -0.88755528562 0.41718291116 -0.20801004974 -0.89275103611 0.39955915667 
-0.21730646426 -0.89515676398 0.38893781458 -0.22424488173 -0.8970161546 0.3808832788 -0.22172029441 -0.89668300983 0.38312973153 
-0.21922920918 -0.89639314335 0.38524699486 -0.21688766631 -0.89629645707 0.38678759883 -0.21723768752 -0.89614941833 0.38684419011 
-0.23104817281 -0.89575056775 0.37947926029 -0.24812187632 -0.89484581325 0.37044911791 -0.28372315677 -0.89106868756 0.3519643966 
-0.32195786264 -0.88622930638 0.33143692824 -0.37740434299 -0.87444714199 0.29755829324 -0.43398351969 -0.86119712191 0.26129884515 
-0.49920543836 -0.83674701445 0.20687322816 -0.56334503069 -0.81125678947 0.15104064241 -0.61768755108 -0.77635156117 0.082472365533 
-0.67008287321 -0.74147218033 0.014331733747 -0.70117874217 -0.7068755321 -0.0491310967 -0.73114585102 -0.67269546888 -0.11163485514 
-0.74535548895 -0.64433092503 -0.16074998544 -0.75905465568 -0.61653016827 -0.20877596441 -0.76418163363 -0.5981969182 -0.23851215309 
-0.76927473767 -0.57992400188 -0.26812037294 -0.77190561493 -0.56603662785 -0.28842679181 -0.77434060891 -0.55318324519 -0.30722128611 
-0.77434060891 -0.55318324519 -0.30722128611 -0.77434060891 -0.55318324519 -0.30722128611 
FrenetTangent 3 128 double
-0.97186288151 0.21162102329 -0.10343636715 -0.97186288151 0.21162102329 -0.10343636715 -0.97826495597 0.18441691941 -0.094805462703 
-0.98668029557 0.1413771415 -0.080464266581 -0.99464429878 0.084078590636 -0.060112473763 -0.9993223391 0.014862015991 -0.03367466491 
-0.99800181525 -0.063166714988 -0.0015306433188 -0.9886061589 -0.1463242543 0.035313951754 -0.97011007232 -0.23072689799 0.075176765841 
-0.94274362303 -0.31277244069 0.11579232093 -0.90793291982 -0.38958959747 0.1545242979 -0.86800457273 -0.45933243937 0.18863131197 
-0.82574561244 -0.52125030422 0.21550476537 -0.78393738841 -0.57553355405 0.23281602008 -0.74495536703 -0.62300266731 0.23855644544 
-0.71048384559 -0.66471955616 0.23099917059 -0.68134815625 -0.7015907132 0.20865081144 -0.65743084217 -0.73402121373 0.17028665702 
-0.63765462702 -0.76166507165 0.11516464421 -0.62005056189 -0.78335642894 0.04347419861 -0.60198998292 -0.79734235709 -0.043049112071 
-0.58066525379 -0.80190444277 -0.14063117616 -0.55376244772 -0.79625703583 -0.2435608433 -0.5200593921 -0.78127090724 -0.34518690328 
-0.47956559224 -0.75951592193 -0.43949107735 -0.4331261008 -0.73451209937 -0.52239233981 -0.38177786725 -0.70966357463 -0.59213450408 
-0.32626418467 -0.68745640332 -0.64881073922 -0.2668889319 -0.66915764921 -0.69354043756 -0.20364730199 -0.65492287013 -0.72773883404 
-0.13651073222 -0.6441021596 -0.75266010123 -0.065685704906 -0.6356204172 -0.7692022318 0.0081982610832 -0.62835025862 -0.77788735754 
0.084038018091 -0.62143332732 -0.77894687317 0.16037726478 -0.61451127764 -0.77243447787 0.23565087227 -0.60782444646 -0.75829948483 
0.30846361267 -0.60216302609 -0.7363761876 0.37781587693 -0.5986908447 -0.70627504247 0.44318980326 -0.59871842923 -0.66717242208 
0.5044521575 -0.60347290483 -0.61753418847 0.56159681093 -0.61388175286 -0.5547596015 0.61425285501 -0.63034604562 -0.47471811939 
0.66084781757 -0.65227748826 -0.3712334041 0.6971003384 -0.67707890427 -0.23582891171 0.71356806619 -0.69808484108 -0.059145325825 
0.69351912173 -0.70187149279 0.16250426269 0.61737773237 -0.66970487379 0.41272280963 0.48146131616 -0.59163423068 0.64665596582 
0.31296542244 -0.48293223729 0.81781972252 0.1499184519 -0.37324066652 0.91554129488 0.013591795148 -0.28289377626 0.95905493819 
-0.092670220323 -0.21813199117 0.97150947741 -0.17309839504 -0.17802227668 0.96868210195 -0.23300090062 -0.15981117561 0.95925542399 
-0.27664720054 -0.16093076436 0.94740045151 -0.30698585424 -0.17931543265 0.93466874395 -0.32587009577 -0.21317614461 0.92106710507 
-0.33436735737 -0.26061652264 0.90569172374 -0.3330669607 -0.31927736534 0.8872025494 -0.32238233111 -0.3861212267 0.86428006507 
-0.30281830626 -0.45744825721 0.83608741491 -0.27515954762 -0.52919397505 0.80264622351 -0.2405382489 -0.59742197076 0.76500218279 
-0.20032961328 -0.65885947507 0.72510153645 -0.15595844752 -0.7112448257 0.68542524069 -0.10869962718 -0.75338495248 0.64853334874 
-0.059556455134 -0.7849643906 0.61667165829 -0.0092411923491 -0.80623227052 0.59152694472 0.041765162524 -0.81770219629 0.57412436753 
0.093096700894 -0.81994557372 0.56482055594 0.14439990269 -0.81350198699 0.56334996695 0.19525546726 -0.79889691478 0.56889280367 
0.24515404939 -0.77672129327 0.58017542576 0.29351724458 -0.74773736743 0.59559756252 0.33978002485 -0.71294134354 0.61340376212 
0.38349174368 -0.67354619366 0.63187784226 0.42438222982 -0.63089460516 0.64951652804 0.46240247436 -0.58629552325 0.6651627704 
0.4976984879 -0.54085098846 0.67806815544 0.53052827206 -0.49533454694 0.68788330344 0.56116511574 -0.45013554283 0.69460183268 
0.58980256613 -0.40529382456 0.69847680617 0.61649021267 -0.36059021148 0.6999389381 0.64111019597 -0.31565911462 0.69952629685 
0.66337982765 -0.27014585918 0.69781689507 0.68289929108 -0.22382495596 0.69537827643 0.69921769255 -0.17669060605 0.69273014093 
0.71190905421 -0.12901464546 0.69031928829 0.72066010333 -0.081351767804 0.68849902349 0.72533689955 -0.034500882535 0.6875289603 
0.72603674881 0.010568935672 0.68757467739 0.72312162315 0.052800842073 0.68869963643 0.71720816867 0.091165593024 0.69086994249 
0.70913589457 0.12474823662 0.6939482405 0.69992349893 0.15280509035 0.69768022762 0.69070126734 0.1748138402 0.70169215513 
0.6826368732 0.19048911137 0.70549330103 0.67685387505 0.19976650758 0.70849288937 0.6743392027 0.20278247285 0.71003232913 
0.67584754524 0.19983733345 0.70943296776 0.68179840335 0.19135481762 0.70606959357 0.69219080193 0.17784252716 0.69945974098 
0.70655162474 0.159847292 0.68937192053 0.72393284252 0.1379332896 0.67594056479 0.74298455751 0.11267454005 0.65975631511 
0.76210013182 0.084609935343 0.64190696204 0.77960061014 0.054220417403 0.62392550437 0.79391352405 0.021893493793 0.60763639725 
0.80369092896 -0.012108458991 0.5949237564 0.80783390628 -0.047628901765 0.58748265301 0.80545320706 -0.084600051955 0.58659011451 
0.79580355916 -0.12296992574 0.59293768019 0.77825266432 -0.1626036481 0.60653346496 0.75232997923 -0.20319281831 0.62666760004 
0.7178603884 -0.24420164561 0.65195246687 0.6751547517 -0.2848528432 0.68045934411 0.62518507816 -0.32419569704 0.70995828615 
0.56965471872 -0.36124679389 0.73823726223 0.51088529949 -0.39514788105 0.76344899166 0.45154681573 -0.42529563892 0.78436540765 
0.39430472956 -0.45139630444 0.80047808002 0.34150115448 -0.47343376154 0.81193437846 0.29497095822 -0.49155997203 0.81936617437 
0.2560003535 -0.50599721459 0.82366900988 0.22540165291 -0.51695186595 0.82580558436 0.20363354701 -0.52458126947 0.82664857724 
0.19092052877 -0.52898181324 0.82687822136 0.19092052877 -0.52898181324 0.82687822136 
FrenetNormal 3 128 double
-0.23288264415 -0.92913193674 0.28719247586 -0.23288264415 -0.92913193674 0.28719247586 -0.20471344417 -0.93172946309 0.29995435216 
-0.15986661967 -0.93419291339 0.31894555097 -0.099665263469 -0.93427471435 0.34234134046 -0.026216148602 -0.92956273361 0.36773065937 
0.057507922536 -0.9180984849 0.39215814524 0.1477879521 -0.89900101563 0.41225707407 0.24050612603 -0.87294176405 0.42441663484 
0.33164249107 -0.84235914221 0.42478739817 0.41773844145 -0.81133479084 0.40893820035 0.49605875745 -0.78513160075 0.37080193993 
0.56396994198 -0.76913728784 0.30060894363 0.61645558346 -0.76608457712 0.18192562855 0.63996363029 -0.76836184884 -0.0081621781159 
0.60654112899 -0.74488767392 -0.27793922374 0.49875322972 -0.65364314229 -0.56920634077 0.36124343044 -0.50535232761 -0.78365949809 
0.25741012925 -0.35159134169 -0.90006863839 0.20638346694 -0.21631772627 -0.95426018772 0.20017332488 -0.098499983159 -0.97479659074 
0.22699696348 0.0064195179912 -0.9738743083 0.27748600195 0.099316097421 -0.95558245668 0.34510731674 0.17747803134 -0.92163034256 
0.42627688626 0.23613520632 -0.87322859583 0.51899865201 0.2706122372 -0.81080787877 0.62102435598 0.27752476437 -0.73301347494 
0.7259473766 0.25738695057 -0.63777140425 0.82246738879 0.21694151913 -0.52581724169 0.89891605161 0.16943600167 -0.40403140163 
0.95049706142 0.12892727461 -0.2827244137 0.98023733973 0.10305291665 -0.16886341867 0.99373447668 0.091832951023 -0.063706349457 
0.99530981998 0.089938533959 0.035628953914 0.9869757534 0.08987244639 0.1334234072 0.96863708851 0.083625110578 0.23398510987 
0.93805198739 0.064121550747 0.34050975858 0.89075062337 0.026901885433 0.4536955097 0.8210908618 -0.027522629396 0.57013358219 
0.72593547552 -0.090806328469 0.68174181043 0.60827069766 -0.14820770251 0.7797699887 0.47532857953 -0.18464120537 0.86021530256 
0.33267189959 -0.18880781226 0.92394860098 0.178849585 -0.15430838387 0.97170044181 0.0077017975218 -0.076601047778 0.99703207661 
-0.18462073312 0.044888711044 0.98178418633 -0.38709700024 0.19810795307 0.90050494243 -0.56848490452 0.35075811598 0.74417313671 
-0.69938316094 0.46539786934 0.54246476145 -0.77916456093 0.52543406282 0.34179179718 -0.82879785735 0.53339083851 0.16908082401 
-0.87089894262 0.4907140509 0.027106309036 -0.91969875809 0.38113169452 -0.094301780519 -0.9656946075 0.15431453819 -0.20885628635 
-0.91623166265 -0.25314192699 -0.31054581814 -0.63552197881 -0.69241608578 -0.34157250857 -0.29589929741 -0.90230159554 -0.31352103035 
-0.061096253282 -0.95298874993 -0.29678222714 0.091766794792 -0.94743585625 -0.30650310548 0.20143763541 -0.92009796925 -0.33592053529 
0.28978415404 -0.8799350055 -0.3764831074 0.36810463827 -0.82924443383 -0.42053851697 0.44286966536 -0.76887332248 -0.46119439881 
0.51900863782 -0.69909128888 -0.49183473208 0.60037351719 -0.61928268558 -0.50600454069 0.69000843454 -0.52681694869 -0.49633885889 
0.78711650397 -0.41686457098 -0.454611415 0.88352064059 -0.28361962572 -0.37276156663 0.95993587213 -0.12652152145 -0.2500308501 
0.99391059281 0.042947196309 -0.10147547403 0.97800990688 0.20391318841 0.043772521534 0.92630683475 0.34079980644 0.16065845708 
0.85975620373 0.45072883705 0.24013076771 0.79313021138 0.53829258699 0.28493079614 0.73344564886 0.60912758607 0.30169697389 
0.68308434057 0.66732792132 0.29676460217 0.64237882404 0.71531524301 0.27508825774 0.61057176036 0.75452553467 0.2406103551 
0.58602558928 0.78602501598 0.19682144947 0.56610782239 0.81104368058 0.14741126692 0.54735528259 0.83131507242 0.096526913301 
0.52598233673 0.84910850269 0.048552364644 0.49848672782 0.86686462475 0.007530241892 0.46221300198 0.8864547192 -0.023604482826 
0.41591940542 0.90834874178 -0.043744845412 0.35938077991 0.93168211109 -0.053046195998 0.29349025165 0.95450397386 -0.052779125335 
0.21974346876 0.97454303462 -0.044482374223 0.14037090253 0.98964458792 -0.029993321255 0.057220492408 0.99830873082 -0.010270988868 
-0.027510731002 0.99952782085 0.013685577382 -0.11193236396 0.99285274552 0.041407386017 -0.19459051269 0.97816944325 0.072931972834 
-0.27404606597 0.95560388569 0.10825879815 -0.34902520194 0.92543896755 0.14745889511 -0.41880903027 0.88774196176 0.19108428897 
-0.48400416873 0.84116696816 0.24120136056 -0.55342646943 0.77272275054 0.31083547695 -0.71469485005 -0.062556679772 0.69663328454 
0.51362680631 -0.81802581384 -0.25888466879 0.55921969379 -0.75857945201 -0.33441074903 0.57213468392 -0.72597503358 -0.38160470919 
0.56849339953 -0.70833869313 -0.41841552373 0.55129269654 -0.70469455533 -0.44663401845 0.52095070195 -0.71623361059 -0.46434877107 
0.47567798082 -0.74575979618 -0.4664469798 0.41173998357 -0.7950507361 -0.44538131187 0.32132289228 -0.86351163793 -0.38871486987 
0.19479277892 -0.93935146085 -0.2822669061 0.029420744033 -0.9922287759 -0.12089861906 -0.15353920496 -0.98575446778 0.068657423407 
-0.31777838963 -0.91831153317 0.23605258551 -0.44519660779 -0.82406109194 0.3503188507 -0.54166195266 -0.7322215923 0.41286059246 
-0.6184508065 -0.65369794783 0.43611649011 -0.68356887593 -0.5883507772 0.43194554613 -0.7404758173 -0.53385903051 0.40827698874 
-0.79022144639 -0.48765103482 0.37114220174 -0.83262785894 -0.44836767933 0.32511116967 -0.86740638275 -0.41523059705 0.27420743687 
-0.8945035619 -0.38821575013 0.22170229836 -0.91440761187 -0.36711814864 0.1705373399 -0.92807320295 -0.35139549698 0.1232936927 
-0.93664286038 -0.3405796866 0.081887906169 -0.94157395565 -0.33331870775 0.0483438218 -0.94391084386 -0.32936240768 0.023510066789 
-0.94528482677 -0.32610375906 0.0096402601827 -0.94528482677 -0.32610375906 0.0096402601827 
FrenetBinormal 3 128 double
-0.03533006652 0.30320024182 0.9522717048 -0.03533006652 0.30320024182 0.9522717048 -0.033016385274 0.3128427839 0.94923090492 
-0.03007753733 0.3275608408 0.94435122561 -0.02737798683 0.34649898806 0.93765073301 -0.025837494627 0.3683642827 0.92932243011 
-0.026176623102 0.3912865167 0.91989654106 -0.028575930451 0.41277885908 0.91038290279 -0.032299395023 0.42981132504 0.90234083026 
-0.035323071167 0.43886726453 0.89785734099 -0.033947129953 0.43583919364 0.89938411685 -0.022220955676 0.41542999367 0.90935369878 
0.009060247432 0.36976472628 0.92908124462 0.073652458718 0.28613903763 0.95535321555 0.1883827302 0.14658699046 0.97109433177 
0.3568200723 -0.057360830804 0.93241040915 0.53573305462 -0.28376242472 0.795279184 0.66127745442 -0.45368698766 0.5973945476 
0.72604173572 -0.54428838595 0.42025415039 0.75693009272 -0.58271720976 0.29579974338 0.77300627453 -0.59543506691 0.21890267387 
0.78185691888 -0.59741782235 0.17830228246 0.78507876689 -0.59675040485 0.16595265619 0.7813060659 -0.59842904166 0.17732318935 