# vtk DataFile Version 4.2
vtk output
ASCII
DATASET POLYDATA
POINTS 128 float
0 0 0 -0.268542 0.194877 -0.0616026 -0.805037 0.567437 -0.157572 
-1.27695 0.854311 -0.177488 -1.69357 1.05507 -0.120615 -2.14286 1.23041 -0.0133461 
-2.61228 1.36633 0.142221 -3.06947 1.43648 0.346566 -3.51327 1.44885 0.582218 
-3.95057 1.4199 0.828998 -4.38289 1.35807 1.07916 -4.8103 1.26944 1.32917 
-5.23371 1.16037 1.57772 -5.65412 1.0369 1.82454 -6.0712 0.902598 2.07135 
-6.48424 0.760135 2.32033 -6.89285 0.611419 2.57294 -7.29678 0.457972 2.83026 
-7.69584 0.300562 3.09266 -8.08999 0.139441 3.36005 -8.47987 -0.0266138 3.63086 
-8.86639 -0.199434 3.90274 -9.24998 -0.381022 4.17232 -9.63162 -0.574846 4.43426 
-10.0173 -0.794338 4.67234 -10.412 -1.056 4.86254 -10.7978 -1.36673 4.95762 
-11.1463 -1.72569 4.9072 -11.4328 -2.1058 4.72147 -11.6383 -2.47139 4.43937 
-11.7747 -2.81767 4.09867 -11.8663 -3.15401 3.73417 -11.9227 -3.4856 3.36052 
-11.9456 -3.81546 2.98215 -11.9362 -4.14694 2.60357 -11.8951 -4.48334 2.22969 
-11.8221 -4.8259 1.8686 -11.716 -5.17535 1.52934 -11.5715 -5.53909 1.21253 
-11.3814 -5.92697 0.921587 -11.1378 -6.3335 0.743978 -10.8388 -6.73826 0.807311 
-10.5543 -7.05607 1.10682 -10.3856 -7.17851 1.55264 -10.3128 -7.14835 2.0645 
-10.2615 -7.07519 2.57258 -10.2076 -6.99268 3.06136 -10.1575 -6.88923 3.54719 
-10.1088 -6.76704 4.03387 -10.0543 -6.63669 4.51761 -9.99086 -6.5039 4.99814 
-9.91813 -6.37135 5.47749 -9.83581 -6.24353 5.95694 -9.74366 -6.12632 6.43733 
-9.64323 -6.02751 6.92014 -9.53761 -5.95652 7.4072 -9.43401 -5.92683 7.89887 
-9.34281 -5.95451 8.394 -9.27575 -6.04957 8.88489 -9.24508 -6.21659 9.35897 
-9.25473 -6.44913 9.80672 -9.30179 -6.7322 10.2214 -9.38092 -7.05421 10.6004 
-9.48505 -7.40688 10.9445 -9.6087 -7.78538 11.2525 -9.7478 -8.18782 11.5213 
-9.89806 -8.61303 11.7454 -10.0548 -9.06031 11.9168 -10.2116 -9.52656 12.0269 
-10.3605 -10.0063 12.0666 -10.4939 -10.4916 12.0332 -10.6049 -10.9723 11.9309 
-10.69 -11.4417 11.7688 -10.7489 -11.897 11.5617 -10.7831 -12.3386 11.3232 
-10.7949 -12.7708 11.0658 -10.7866 -13.1983 10.801 -10.76 -13.6268 10.539 
-10.7163 -14.0624 10.2913 -10.6562 -14.5112 10.0709 -10.5808 -14.9767 9.89361 
-10.4916 -15.4588 9.77823 -10.3915 -15.9518 9.73746 -10.2855 -16.443 9.77548 
-10.1772 -16.9222 9.88791 -10.0691 -17.3837 10.0595 -9.96218 -17.8253 10.2757 
-9.85504 -18.2492 10.5247 -9.74584 -18.6578 10.7971 -9.63189 -19.0529 11.0868 
-9.5099 -19.4358 11.3891 -9.37571 -19.8073 11.7006 -9.22432 -20.1666 12.0183 
-9.04944 -20.5121 12.3396 -8.84385 -20.8401 12.6612 -8.599 -21.1444 12.9791 
-8.30807 -21.4173 13.2874 -7.96758 -21.6482 13.5779 -7.57924 -21.8293 13.8436 
-7.15373 -21.9584 14.0809 -6.70239 -22.0375 14.2895 -6.23577 -22.0748 14.4755 
-5.76226 -22.0787 14.6454 -5.286 -22.0556 14.8056 -4.81002 -22.0113 14.9619 
-4.33618 -21.9495 15.1188 -3.86605 -21.8734 15.2805 -3.40083 -21.7857 15.4502 
-2.94167 -21.6886 15.631 -2.48969 -21.5848 15.8256 -2.04598 -21.477 16.0365 
-1.6115 -21.3683 16.2655 -1.1871 -21.2624 16.5138 -0.773249 -21.163 16.7819 
-0.370259 -21.0742 17.0696 0.0218728 -20.9994 17.3756 0.403516 -20.9418 17.6979 
0.775949 -20.9041 18.0343 1.14014 -20.8882 18.382 1.4956 -20.8932 18.7365 
1.84362 -20.9192 19.0948 2.19212 -20.9694 19.459 2.54346 -21.0438 19.8267 
2.87669 -21.1295 20.1766 3.18953 -21.2221 20.5039 3.56923 -21.3601 20.8815 
4.02905 -21.5489 21.3164 4.26464 -21.6494 21.5352 
LINES 1 129
128 0 1 2 3 4 5 6 7 8 9 10 11 12 13 14 15 16 17 18 19 20 21 22 23 24 25 26 27 28 29 30 31 32 33 34 35 36 37 38 39 40 41 42 43 44 45 46 47 48 49 50 51 52 53 54 55 56 57 58 59 60 61 62 63 64 65 66 67 68 69 70 71 72 73 74 75 76 77 78 79 80 81 82 83 84 85 86 87 88 89 90 91 92 93 94 95 96 97 98 99 100 101 102 103 104 105 106 107 108 109 110 111 112 113 114 115 116 117 118 119 120 121 122 123 124 125 126 127 

CELL_DATA 1
FIELD FieldData 2
Length 1 1 double
57.310641496 
Tortuosity 1 1 double
0.85876837577 
POINT_DATA 128
SCALARS MaximumInscribedSphereRadius float
LOOKUP_TABLE default
1.2772 1.2682 1.25921 1.25243 1.2458 1.26647 1.28763 1.34976 1.4142 
1.44486 1.47314 1.42366 1.36704 1.35315 1.34407 1.35977 1.37882 1.41904 
1.4626 1.51601 1.57121 1.68167 1.80362 1.82933 1.8326 1.61587 1.34078 
1.33716 1.41133 1.4576 1.49603 1.43171 1.33405 1.28973 1.26422 1.26087 
1.26606 1.32701 1.41138 1.43939 1.4416 1.49561 1.57584 1.782 2.02567 
2.22588 2.40637 2.53469 2.6394 2.68596 2.70347 2.66056 2.58512 2.46249 
2.3124 2.14436 1.96506 1.87757 1.85194 1.80638 1.74651 1.69641 1.65379 
1.66909 1.73203 1.73559 1.6869 1.57575 1.40573 1.37393 1.48138 1.60984 
1.76088 1.80247 1.71839 1.6564 1.62159 1.6344 1.71019 1.73336 1.68171 
1.59508 1.45499 1.37702 1.3999 1.43604 1.49529 1.53673 1.54467 1.55762 
1.58074 1.62047 1.69683 1.7559 1.77356 1.76117 1.6704 1.58063 1.49371 
1.41821 1.37777 1.35667 1.40103 1.45169 1.52601 1.60119 1.67997 1.74682 
1.75759 1.74156 1.5824 1.43127 1.32938 1.24033 1.24298 1.24766 1.26948 
1.29401 1.34646 1.40345 1.52192 1.64175 1.78357 1.92448 2.01254 2.09946 
2.16883 2.2382 
TEXTURE_COORDINATES TCoords 2 float
0 0 0.00787402 0 0.015748 0 0.023622 0 0.0314961 
0 0.0393701 0 0.0472441 0 0.0551181 0 0.0629921 0 
0.0708661 0 0.0787402 0 0.0866142 0 0.0944882 0 0.102362 
0 0.110236 0 0.11811 0 0.125984 0 0.133858 0 
0.141732 0 0.149606 0 0.15748 0 0.165354 0 0.173228 
0 0.181102 0 0.188976 0 0.19685 0 0.204724 0 
0.212598 0 0.220472 0 0.228346 0 0.23622 0 0.244094 
0 0.251969 0 0.259843 0 0.267717 0 0.275591 0 
0.283465 0 0.291339 0 0.299213 0 0.307087 0 0.314961 
0 0.322835 0 0.330709 0 0.338583 0 0.346457 0 
0.354331 0 0.362205 0 0.370079 0 0.377953 0 0.385827 
0 0.393701 0 0.401575 0 0.409449 0 0.417323 0 
0.425197 0 0.433071 0 0.440945 0 0.448819 0 0.456693 
0 0.464567 0 0.472441 0 0.480315 0 0.488189 0 
0.496063 0 0.503937 0 0.511811 0 0.519685 0 0.527559 
0 0.535433 0 0.543307 0 0.551181 0 0.559055 0 
0.566929 0 0.574803 0 0.582677 0 0.590551 0 0.598425 
0 0.606299 0 0.614173 0 0.622047 0 0.629921 0 
0.637795 0 0.645669 0 0.653543 0 0.661417 0 0.669291 
0 0.677165 0 0.685039 0 0.692913 0 0.700787 0 
0.708661 0 0.716535 0 0.724409 0 0.732283 0 0.740157 
0 0.748031 0 0.755906 0 0.76378 0 0.771654 0 
0.779528 0 0.787402 0 0.795276 0 0.80315 0 0.811024 
0 0.818898 0 0.826772 0 0.834646 0 0.84252 0 
0.850394 0 0.858268 0 0.866142 0 0.874016 0 0.88189 
0 0.889764 0 0.897638 0 0.905512 0 0.913386 0 
0.92126 0 0.929134 0 0.937008 0 0.944882 0 0.952756 
0 0.96063 0 0.968504 0 0.976378 0 0.984252 0 
0.992126 0 1 0 
FIELD FieldData 7
Curvature 1 128 double
0 0.043898359194 0.081036619507 0.11376403021 0.13987207681 0.15743923941 0.16548504356 0.16442045644 0.15595724163 
0.14253659803 0.12663294523 0.11028403362 0.094932808319 0.08152831745 0.070708911816 0.06310335422 0.059600164929 0.061480446733 
0.070045167438 0.086142372057 0.11022973918 0.1426795692 0.18362467157 0.23218640082 0.28506125117 0.33515373603 0.37198768722 
0.38567660955 0.37288882774 0.3392402294 0.29582260227 0.25344929349 0.22027544937 0.2023499322 0.20521576027 0.23455497264 
0.29773550465 0.40683289836 0.57887926838 0.81874035894 1.0667621911 1.1668181763 1.0249378523 0.75731327962 0.51261796469 
0.33755161837 0.22080185044 0.1420998344 0.086596855086 0.045937854208 0.022695620577 0.036122811017 0.063186664903 0.092183939831 
0.12191869292 0.15182523862 0.18086572582 0.20761607126 0.23045161425 0.24805793634 0.25994324568 0.26653496224 0.26905586369 
0.26897777238 0.26739659144 0.26476477673 0.2605727334 0.25375073339 0.24288437754 0.2269082713 0.20560412077 0.17969988015 
0.1507878336 0.12119116624 0.094297263604 0.075698697288 0.073089463766 0.087535142707 0.11140855455 0.13770816675 0.16198086079 
0.18090588136 0.19225017431 0.19494505726 0.18965303059 0.17831058004 0.16375604908 0.14897885997 0.13674210695 0.12937307142 
0.12826058805 0.13358119475 0.14415210003 0.15789213893 0.17235841057 0.18498494376 0.1934129829 0.19582584641 0.19141230733 
0.18056584273 0.16456105586 0.14528382476 0.12461658147 0.10426270341 0.085502514057 0.069563390298 0.057528555657 0.050455012671 
0.048603188958 0.050829128574 0.055381822212 0.060655303258 0.065766003817 0.070107178274 0.073433293081 0.075556660763 0.076481344717 
0.076140658058 0.074494898348 0.071561213862 0.067207315051 0.061440260814 0.054145984319 0.04530418663 0.035075857525 0.023606717344 
0.011292542141 0 
Torsion 1 128 double
0 0 -0.02305112694 -0.031132534758 -0.039049013101 -0.046476534954 -0.053106571137 -0.058662418972 -0.062958981525 
-0.066101049056 -0.069153550951 -0.074796126464 -0.08819144044 -0.11789531502 -0.17385950534 -0.25909131167 -0.35130874579 -0.39622042773 
-0.36045669061 -0.27597404422 -0.19069559193 -0.12410750503 -0.075453860292 -0.039261153807 -0.010154699617 0.016085545015 0.042848539545 
0.073920592106 0.11369075903 0.16784647242 0.24329609285 0.34618218731 0.47370370311 0.5950216673 0.64713343808 0.59732773159 
0.48719896685 0.37095774276 0.27115412869 0.19028610099 0.1294603619 0.088353329846 0.060233380559 0.037514680172 0.019195322889 
0.0099508411374 0.017472554244 0.060389293026 0.20242055337 0.77159981842 3.006365793 0.99002696545 0.21775059722 0.036620103018 
-0.022669176111 -0.042511593953 -0.045267925117 -0.039055932128 -0.026823548655 -0.010136025876 0.010220499916 0.033249011926 0.05732750911 
0.080509627698 0.10045616806 0.11559106891 0.12613091844 0.13341834512 0.14037945528 0.15109823468 0.17077048233 0.20782171687 
0.27764070137 0.41083896264 0.65903291503 1.003668239 1.059403898 0.72113723115 0.42506303217 0.25427040049 0.15573945965 
0.092555036766 0.045454408237 0.0039231711694 -0.03931147662 -0.089269070163 -0.14949999124 -0.22005469449 -0.29180253289 -0.34338742699 
-0.35153374771 -0.31283453988 -0.2480471202 -0.18040600933 -0.12215173921 -0.075403490956 -0.038286370527 -0.0076427888792 0.020217707887 
0.047827687328 0.078289898651 0.11544099349 0.16386579167 0.22982524455 0.32211226414 0.44703541136 0.59117226325 0.69215388753 
0.67637089375 0.56930051733 0.45108804415 0.36230866283 0.3026223864 0.26498595013 0.23975048909 0.22291827077 0.2105769293 
0.19904941586 0.18718812162 0.17330553976 0.15702565187 0.13810905442 0.11721773796 0.0946907722 0.071538971674 0.049728267071 
0 0 
Abscissas 1 128 double
0 0.5028672316 1.0057344632 1.5086014139 2.0114683463 2.5143374662 3.0172066251 3.5200733402 4.0229399183 
4.5258073447 5.0286748307 5.5315421601 6.0344094752 6.5372723807 7.0401347883 7.5430019002 8.0458696485 8.5487384546 
9.0516074282 9.554475502 10.057343411 10.560209542 11.063075304 11.565952739 12.068832898 12.571689372 13.074539562 
13.577407551 14.080280641 14.583145598 15.086008269 15.58887744 16.09174872 16.594616121 17.097482153 17.600349412 
18.103217144 18.606083476 19.108949221 19.611819508 20.114691874 20.617560798 21.12042798 21.623286533 22.126142517 
22.629006641 23.131874457 23.634742262 24.137610061 24.640480308 25.143351778 25.646218339 26.149082256 26.651948455 
27.154815981 27.657684069 28.160552509 28.663419709 29.166286074 29.669151102 30.17201517 30.674872433 31.177724481 
31.680592551 32.183473797 32.686345782 33.189209611 33.692075554 34.194943488 34.697813474 35.200685528 35.703561485 
36.206441634 36.709314772 37.212179861 37.715039923 38.217893794 38.720750391 39.22361059 39.72647137 40.229332975 
40.732199946 41.235075117 41.737951697 42.240830566 42.74369647 43.246539795 43.749392878 44.252264314 44.755130452 
45.257985816 45.760856947 46.263762847 46.766655346 47.269515759 47.772373148 48.275222652 48.778076558 49.280942943 
49.783809709 50.286677647 50.789544663 51.292408559 51.79527524 52.298152366 52.801025701 53.303883186 53.806743469 
54.30961691 54.812490449 55.315364508 55.818236111 56.32109266 56.823950371 57.326816381 57.829681935 58.332543605 
58.83540538 59.33826825 59.841133183 60.344026045 60.846917366 61.34978389 61.852650437 62.355518333 62.858385204 
63.361236346 63.864087488 
ParallelTransportNormals 3 128 double
-0.18944750803 0 0.9818908502 -0.10297304473 -0.053620498826 0.98767540757 -0.016498581431 -0.10724099765 0.99345996493 
0.093896109404 -0.15646285973 0.97574882706 0.2058412189 -0.20539961881 0.9565147871 0.30604068527 -0.2269857801 0.91784335028 
0.40603062605 -0.24808404559 0.87882517791 0.45385795664 -0.2487275651 0.85412921884 0.49875978692 -0.24822389575 0.8302365102 
0.51606186769 -0.24571074749 0.82035360829 0.5314233406 -0.2430563077 0.81145577115 0.53939729365 -0.24100486515 0.80677811315 
0.54669314674 -0.23900877168 0.80248782511 0.55612261599 -0.23590754287 0.79682920395 0.56579302504 -0.23268151603 0.79101606299 
0.57743160164 -0.22838763874 0.78370508958 0.58933640735 -0.22394931599 0.77619150812 0.60065336743 -0.219423089 0.76867855387 
0.61187719313 -0.21488293506 0.76116569899 0.61858575988 -0.21198067617 0.75654358989 0.6244699591 -0.20937745384 0.75244925495 
0.61780885556 -0.21283048868 0.75688245561 0.60854056745 -0.21754214442 0.76308786214 0.55780070692 -0.25072690851 0.78743694801 
0.49738249693 -0.29055653019 0.81602028058 0.39327413529 -0.38760706606 0.81851653634 0.27757477412 -0.49983831348 0.81409188925 
0.20783046165 -0.59430399534 0.76799136663 0.15125451725 -0.68367897414 0.70994866825 0.13309005976 -0.72111265776 0.67911878035 
0.12572538854 -0.74394250976 0.65594005516 0.12403885492 -0.74830004655 0.65165603639 0.12419448972 -0.74666457684 0.65350206124 
0.12298301751 -0.7338895665 0.66760330548 0.12128939576 -0.71718587722 0.6860267048 0.1132711163 -0.68648226913 0.71654275912 
0.10281478525 -0.65038192248 0.75172033317 0.0636781366 -0.56569258594 0.8116168974 0.012502451505 -0.46060721933 0.88188966554 
-0.16096813711 -0.20462177624 0.88688537182 -0.39042597607 0.12044651588 0.86199689571 -0.59089169678 0.34043502189 0.61609693153 
-0.77669043248 0.50726412655 0.25838822817 -0.82921035383 0.5409455128 0.11207726211 -0.84203803856 0.53497370458 0.028723406325 
-0.84761503699 0.53003844582 -0.012355284832 -0.84990222166 0.52557349491 -0.034252699504 -0.85037267434 0.52472674872 -0.038972958549 
-0.85002060658 0.52551813485 -0.035916307291 -0.84819887586 0.52888380683 -0.023452145938 -0.84564293204 0.53353553855 -0.0062881878906 
-0.84127854251 0.53956376586 0.018246971265 -0.83594026344 0.54633326765 0.046751691501 -0.82896847077 0.55212113234 0.081359957338 
-0.82104654168 0.55733802587 0.11951836256 -0.81380830743 0.55796062347 0.15822895082 -0.80699858425 0.55570371026 0.19728562411 
-0.80333819902 0.5500983825 0.22698399778 -0.801800008 0.54223671196 0.25037624309 -0.80170737447 0.53533989119 0.26564829791 
-0.80265124332 0.52913489284 0.27509796469 -0.8046206231 0.52098511958 0.28460938701 -0.80737599881 0.51134478674 0.29416814145 
-0.81268607223 0.49500057477 0.3064578493 -0.82009678171 0.47314400409 0.32099312194 -0.83185270619 0.43875080031 0.33685010221 
-0.84743428317 0.39331998348 0.35387075197 -0.86668348478 0.33276125113 0.365206603 -0.88939036756 0.25794056068 0.37118306653 
-0.91025283555 0.17876915336 0.36566172529 -0.92925722919 0.09521480819 0.34855742769 -0.94316603461 0.020506354307 0.32590256036 
-0.95160303555 -0.044703100548 0.29728731495 -0.95665627321 -0.099090326845 0.27072813458 -0.95782490784 -0.14105349793 0.2465293429 
-0.957798406 -0.17494816361 0.22687151232 -0.95630059152 -0.1989098264 0.21280398347 -0.95499797174 -0.21590075756 0.20326104458 
-0.95395349106 -0.22367310593 0.19970173975 -0.95409375383 -0.22415440335 0.19846942114 -0.95591858513 -0.21426866734 0.20054580855 
-0.95866330561 -0.20066533701 0.2011143941 -0.96281322754 -0.18138309565 0.19937969644 -0.96657773115 -0.16435781854 0.19642136933 
-0.96971644983 -0.15099706426 0.19147629474 -0.97191838096 -0.14169958309 0.18786085823 -0.97248871389 -0.13947908451 0.18656124576 
-0.97189934663 -0.14125826759 0.18808523573 -0.9691287972 -0.15056011427 0.19491990117 -0.96438388509 -0.16438228057 0.20590061268 
-0.95562330995 -0.1873983405 0.22531398156 -0.94259592909 -0.2160589031 0.25073640644 -0.92015945056 -0.25716664051 0.28940991383 
-0.88890474268 -0.3036347288 0.33532926485 -0.83653922044 -0.36293548085 0.39859514357 -0.77269332533 -0.42181017484 0.46522239752 
-0.67891541288 -0.47957403581 0.54061354292 -0.58283778852 -0.52970171258 0.61083246076 -0.48024154526 -0.55818434138 0.66639050726 
-0.38606199727 -0.58084610408 0.71499149814 -0.31775737572 -0.58561313767 0.74220484265 -0.25745988175 -0.58887083758 0.7657951813 
-0.22426883634 -0.58701900535 0.77712059464 -0.19603539013 -0.58527924453 0.78675169902 -0.18639539124 -0.58395980692 0.79002830736 
-0.17994997757 -0.58315306778 0.79216830725 -0.18686643513 -0.5844907732 0.78955425779 -0.19611471221 -0.5864129236 0.7858073846 
-0.21633138515 -0.59108418204 0.77673194331 -0.23827383253 -0.5962263639 0.76638880505 -0.26942862756 -0.6038823796 0.74927858012 
-0.30157746352 -0.61168785876 0.73096521519 -0.33981935988 -0.62040948724 0.70527709888 -0.37821074545 -0.6288893557 0.67885885344 
-0.41767067593 -0.63564112981 0.64722166401 -0.45672546941 -0.64197020316 0.6154708704 -0.49233342766 -0.64470301174 0.58275355217 
-0.52728387625 -0.64709199009 0.55042968193 -0.55542925732 -0.64592240795 0.52217790424 -0.58304476148 -0.64459719573 0.49440398247 
-0.60348567682 -0.64116473601 0.4731002799 -0.62339955947 -0.63774500202 0.45235126623 -0.6348378161 -0.63452992033 0.4405226397 
-0.6461644625 -0.63133875125 0.42881380757 -0.65097537771 -0.62954358382 0.42409849333 -0.65549244375 -0.62785806464 0.41967118897 
-0.65549244375 -0.62785806464 0.41967118897 -0.65549244375 -0.62785806464 0.41967118897 
FrenetTangent 3 128 double
-0.91146361894 0.39614548215 0.11091811536 -0.91146361894 0.39614548215 0.11091811536 -0.91725197417 0.37592436107 0.13164228282 
-0.92481172758 0.34362085561 0.16324207827 -0.93201374817 0.30020584261 0.20304389989 -0.93671014534 0.24745413649 0.24767025244 
-0.9372976661 0.18798779775 0.2934853881 -0.93310463606 0.12500084665 0.33718025816 -0.92444379616 0.061747452407 0.37628568914 
-0.91234694128 0.0010172862587 0.40941668733 -0.89815446512 -0.055201506411 0.43620104365 -0.88315684872 -0.10581470191 0.45698712172 
-0.86838905121 -0.15053254403 0.47248323666 -0.85457558795 -0.189705538 0.483438076 -0.84217619429 -0.22416125418 0.49039880698 
-0.8314673498 -0.25507266415 0.49355848915 -0.82261641382 -0.28385965617 0.49267223518 -0.8157177379 -0.31210809696 0.4870247508 
-0.81077035831 -0.34149042654 0.47543213466 -0.80759061206 -0.37367064934 0.45625393054 -0.80564469643 -0.4101794076 0.42742189543 
-0.80381280216 -0.45222528473 0.38649355873 -0.80010382287 -0.50039898124 0.33080920817 -0.7913883006 -0.55424565992 0.25790755346 
-0.77336787278 -0.61173649253 0.16637486907 -0.7411394565 -0.66890967402 0.057202744859 -0.69067301707 -0.72025744188 -0.064807413897 
-0.62088201049 -0.76033038055 -0.19079633501 -0.53487154947 -0.78608079104 -0.30982158662 -0.43900289012 -0.79828638118 -0.41232913563 
-0.34023884024 -0.800924695 -0.49270393192 -0.24377650638 -0.7992308419 -0.54936606766 -0.15221491556 -0.79797935214 -0.58314627071 
-0.065924635424 -0.80070062223 -0.59542628092 0.016192914154 -0.8095895187 -0.58677304023 0.096049689402 -0.82560429926 -0.55601438669 
0.17586289911 -0.84831882885 -0.4994270771 0.25752315558 -0.8750346028 -0.40987347833 0.34118743531 -0.89843899221 -0.27640280617 
0.42196685157 -0.90241943812 -0.087081191265 0.48515641437 -0.85994774998 0.15847119893 0.50854812995 -0.74744082953 0.42744707962 
0.48279589406 -0.57689584859 0.65886212865 0.42519615124 -0.39411427053 0.8147896506 0.3606540734 -0.23582873667 0.90239317722 
0.30350304318 -0.11306294963 0.94609865881 0.25802001941 -0.022945329631 0.96586706199 0.22384654802 0.040475009785 0.97378359841 
0.19912181346 0.082248069945 0.97651715725 0.18164278931 0.1058363579 0.97765257758 0.16919362013 0.11337484835 0.97904017419 
0.15961274479 0.1060742713 0.98146422282 0.15080777686 0.084577364818 0.98493841625 0.14078991813 0.049268848393 0.98881281319 
0.12776956613 0.0005549254784 0.99180372556 0.11027082343 -0.060864212567 0.99203623579 0.087295346713 -0.13373163444 0.98716532171 
0.05850135884 -0.21604625412 0.97462895868 0.024317183957 -0.30503036466 0.95203211669 -0.014028131329 -0.39731844164 0.91757357605 
-0.054651570451 -0.48937271685 0.87036058611 -0.095289157935 -0.57796933647 0.81047604683 -0.13361549078 -0.66055725648 0.73879023513 
-0.16751185863 -0.73536494547 0.65664158731 -0.19520038973 -0.8012501152 0.56559266327 -0.21530392466 -0.85744504427 0.46736732457 
-0.22686822077 -0.90335365691 0.36398211626 -0.22939276109 -0.93853176568 0.25794783575 -0.22291117489 -0.96285501474 0.15238382033 
-0.20804503351 -0.97679238261 0.050930396684 -0.18596753192 -0.98163124153 -0.042616695409 -0.15825323077 -0.97948113993 -0.12479026996 
-0.12663008173 -0.97302321182 -0.19284877924 -0.092725411662 -0.96508959531 -0.24495728414 -0.057881724834 -0.95821795857 -0.28012149114 
-0.023092068823 -0.95430366199 -0.2979450907 0.010970365367 -0.95437956227 -0.29839454119 0.043859157768 -0.95850859827 -0.28166938299 
0.075238522342 -0.96577581467 -0.2482261883 0.10479484624 -0.97438365174 -0.19898376674 0.13221110331 -0.98190016457 -0.13561818087 
0.15720527178 -0.98569061286 -0.060831885028 0.17964687134 -0.98349325545 0.021633726239 0.19970550947 -0.97395934997 0.10733542798 
0.21795478349 -0.95693053406 0.19178025271 0.23539249403 -0.93331428738 0.27113615534 0.253329126 -0.90464378688 0.34270099618 
0.27322980711 -0.87253333323 0.40500747513 0.29655693492 -0.83824822301 0.45759578338 0.32462392564 -0.80246806483 0.5006638711 
0.35846684448 -0.76523564893 0.53471106497 0.39872319685 -0.72603132827 0.5602662962 0.44550268767 -0.68392651199 0.57772993818 
0.49823998874 -0.63781845432 0.58731978763 0.55558887049 -0.5867049683 0.58915047922 0.61542143109 -0.5299982725 0.58340234255 
0.67499588755 -0.46780915899 0.57055687057 0.73132947177 -0.40111527969 0.5516010661 0.78170769575 -0.33171046424 0.52811101703 
0.82416448946 -0.26189082781 0.5021614169 0.85774531871 -0.19404813136 0.4760444212 0.88247943342 -0.13027438386 0.45194981414 
0.89912685361 -0.072113667377 0.43170652079 0.90884070546 -0.020515237967 0.41663856892 0.91286993898 0.024062968086 0.40754073179 
0.91236185447 0.061508998193 0.40473755651 0.9082701116 0.091915016494 0.40816299944 0.90133933854 0.11545819033 0.41744077794 
0.8921296964 0.13234837341 0.43195892497 0.8810705977 0.14277523038 0.4509210967 0.86850711159 0.1469255453 0.47340076177 
0.85474807456 0.14501032171 0.49837509531 0.84009469245 0.13728534624 0.52477961224 0.82485871636 0.12409777802 0.55155039619 
0.80937786712 0.10590138467 0.577661116 0.79399815865 0.083296363324 0.6021865491 0.77906615616 0.057012081427 0.62434409334 
0.764909668 0.027892752395 0.64353336678 0.7518155615 -0.0030865593311 0.65936623711 0.74000756481 -0.034873591626 0.67169385633 
0.72963634468 -0.066356820756 0.68060824037 0.72077618631 -0.096410863396 0.68643035675 0.71343412308 -0.1239422401 0.68967388898 
0.7075755767 -0.14791244153 0.69098387311 0.70313657055 -0.16741158867 0.69106607725 0.70005251956 -0.18168965408 0.69059057296 
0.69827699693 -0.1901902678 0.69009919403 0.69827699693 -0.1901902678 0.69009919403 
FrenetNormal 3 128 double
-0.20767645976 -0.67583644476 0.70718850951 -0.20767645976 -0.67583644476 0.70718850951 -0.18350920598 -0.69218760435 0.69799763016 
-0.14568404186 -0.71628749981 0.68242829481 -0.096384422264 -0.74537829103 0.65963720818 -0.038759120146 -0.7763620793 0.62909431124 
0.02332019239 -0.80635288231 0.5909747861 0.085817261969 -0.8331451869 0.54635564891 0.1451496066 -0.85553159726 0.49698820689 
0.19868937997 -0.87324643757 0.44493054465 0.24486286406 -0.88679867434 0.3919569989 0.28279918709 -0.89737306153 0.33874209693 
0.31169287905 -0.9067548609 0.28397741353 0.32978914251 -0.91733924974 0.22299735955 0.33313419434 -0.93145489692 0.1463331253 
0.3151022164 -0.94817988012 0.040810637669 0.26866648482 -0.95768974724 -0.10319238326 0.19622799882 -0.94132779398 -0.27458433451 
0.11787470133 -0.89080649007 -0.43882724624 0.058857083873 -0.82085401172 -0.56809729371 0.0313921837 -0.7500567505 -0.66062803591 
0.035465011894 -0.68497094639 -0.72770669609 0.067654911942 -0.62323385903 -0.77910356812 0.12485685828 -0.55954387454 -0.81934206373 
0.20399615465 -0.48861358532 -0.84831735402 0.30097517478 -0.4072170117 -0.8623156322 0.40947943537 -0.3156409061 -0.85597745905 
0.52140729566 -0.21881020657 -0.82477665191 0.62928688774 -0.12592117018 -0.76690408255 0.72882381723 -0.048013415976 -0.6830157797 
0.81965468407 0.0041994056186 -0.57284252973 0.90179471216 0.0216243385 -0.4316233139 0.96831963112 -0.0022289956775 -0.24970407198 
0.99759658976 -0.065645016398 -0.022176021494 0.9616688158 -0.14805206243 0.23081090858 0.85992810972 -0.21249695211 0.4640783247 
0.72653324669 -0.23048037601 0.6473239048 0.59169396453 -0.19254839107 0.78283035802 0.46108526733 -0.096281539412 0.88211690915 
0.32345893183 0.060122312749 0.9443302531 0.16612049091 0.2685701424 0.94882772995 -0.0074086686156 0.49261801401 0.87021411383 
-0.16962018397 0.67650563652 0.71663736781 -0.29378250154 0.79138262989 0.53610201912 -0.37568227572 0.84882116723 0.37197507144 
-0.42585411058 0.87215002051 0.2408373273 -0.45768218881 0.87752279231 0.14311101642 -0.4864042383 0.87045440078 0.075631032826 
-0.5380823091 0.84199869746 0.038802346823 -0.68574329287 0.72620624438 0.048791668507 -0.98533162926 -0.0029685030089 0.17062464173 
-0.50636517516 -0.84465640954 0.1736371481 -0.29706226741 -0.94640776975 0.12675307744 -0.25434234069 -0.96344029451 0.084218600345 
-0.26103427383 -0.96472466575 0.034167633509 -0.28508606797 -0.95811890468 -0.027094249428 -0.31315872626 -0.94439535325 -0.1002448449 
-0.3387913146 -0.92265626123 -0.18418976289 -0.35765850586 -0.8919364017 -0.2766402872 -0.3665798898 -0.85172552188 -0.37440996217 
-0.36327828925 -0.80218191047 -0.47384920289 -0.34607183515 -0.7441604059 -0.57136641064 -0.31429365872 -0.67874901601 -0.66371625666 
-0.26822863141 -0.60693216483 -0.74812214818 -0.20920715201 -0.52939634363 -0.82217509017 -0.13977957581 -0.44660437075 -0.88374555513 
-0.062952501765 -0.35934363248 -0.93107955424 0.0183441256 -0.26913637641 -0.96292736172 0.1017635625 -0.17844657342 -0.97867308014 
0.18657133994 -0.090743415514 -0.9782416714 0.27398911849 -0.010156046008 -0.96167916567 0.36808297861 0.05875245217 -0.92793484158 
0.47700129921 0.11072916616 -0.87189954256 0.61370883972 0.13833290484 -0.7773194115 0.78969810685 0.12771534772 -0.60005473916 
0.965209709 0.056361260831 -0.255330425 0.96935159989 -0.063094313527 0.23743753576 0.77831299887 -0.14397874351 0.6111456432 
0.58308180702 -0.15932876256 0.79663664976 0.44431402349 -0.1331329797 0.88592361874 0.35009122579 -0.081744634558 0.93314197652 
0.2849587426 -0.013702886683 0.95844183231 0.24028358164 0.065194848829 0.96851093545 0.21247266969 0.14997940056 0.96558870335 
0.2016918267 0.2364268327 0.95048553898 0.21077188334 0.32135789057 0.92320329254 0.24373494828 0.40251611498 0.88236843335 
0.30480384088 0.4778617725 0.8238584496 0.39411056632 0.54386597441 0.74086885708 0.50212629628 0.59479276871 0.6277664732 
0.60801361566 0.62601255011 0.48829062071 0.68956629815 0.64011072285 0.33875741018 0.73641350242 0.64691924986 0.19796625373 
0.75066280462 0.6563078746 0.075929753698 0.73888199018 0.67332285688 -0.026262806362 0.70712974842 0.69821518264 -0.11163815493 
0.65968950001 0.72898312594 -0.18273851719 0.60018469464 0.76263880241 -0.24116465202 0.53179645632 0.79689155279 -0.28662934624 
0.45753689622 0.83045102038 -0.31782242109 0.38002254022 0.86297121265 -0.33296179219 0.30061767659 0.89522511467 -0.32893921412 
0.21912370839 0.92799072451 -0.3013602755 0.13313286536 0.96082138628 -0.24310060433 0.038065466832 0.98889571682 -0.14365333792 
-0.072249692823 0.99732256111 0.011300043809 -0.19948925159 0.95267420739 0.22938154475 -0.32852532491 0.81032341606 0.48522888648 
-0.42566146028 0.5666215281 0.7055156732 -0.47286259243 0.28755989529 0.83289271536 -0.4832712609 0.038661545332 0.87461658646 
-0.47615488885 -0.16311682079 0.86410035563 -0.46238876711 -0.32458740113 0.82513007888 -0.44605280554 -0.45654689804 0.76980635524 
-0.42799549256 -0.5671754627 0.70365606148 -0.40863879182 -0.66026499932 0.63013051703 -0.38715728474 -0.73953632728 0.55063168952 
-0.36388992952 -0.80565598548 0.46744256572 -0.33911905736 -0.8594079497 0.38264375198 -0.31364439443 -0.90131960205 0.29874766744 
-0.28852418161 -0.93222674783 0.21841952124 -0.26503398145 -0.95336658225 0.14439234233 -0.24413511581 -0.96653029585 0.078849428886 
-0.22677974511 -0.97365513518 0.023803885038 -0.21360608748 -0.97672966599 -0.01927690235 -0.20463665489 -0.97757278509 -0.049752279655 
-0.1997420635 -0.97753469853 -0.067298003304 -0.1997420635 -0.97753469853 -0.067298003304 
FrenetBinormal 3 128 double
0.35511203782 0.62154151664 0.69827042304 0.35511203782 0.62154151664 0.69827042304 0.35351546952 0.61608213344 0.7038960276 
0.35142485467 0.60733592451 0.71249115526 0.349371459 0.59522067784 0.72363798153 0.34795378172 0.57967954264 0.73681734075 
0.34774883717 0.56076342345 0.75140876303 0.34921502789 0.53874287548 0.76668440601 0.35261205231 0.51405538437 0.78192825909 
0.35797428542 0.48727776924 0.79650159232 0.36518589047 0.45884736555 0.80999898798 0.37424403848 0.42839798938 0.82244547683 
0.38567862903 0.39387253704 0.83433591537 0.40117288787 0.3500007282 0.8464985554 0.42398215331 0.28660688603 0.85912491906 
0.457572551 0.1894540866 0.86875457388 0.50111930281 0.047476769347 0.86407488143 0.54414992838 -0.12841541998 0.82910212601 
0.57337333463 -0.2997467028 0.76249257917 0.58679915387 -0.43193626528 0.68490715849 0.59156669439 -0.51881376679 0.61715567038 
0.59382422654 -0.57123295987 0.56662659092 0.59603413118 -0.60098287541 0.53250624216 0.59842737455 -0.61621619658 0.5120178478 
0.60023970399 -0.622121554 0.50266994122 0.60010519927 -0.62187953285 0.50312980079 0.59606826412 -0.61773783744 0.51293526756 