# vtk DataFile Version 4.2
vtk output
ASCII
DATASET POLYDATA
POINTS 128 float
0 0 0 -0.31736 0.021142 0.108849 -0.942719 0.0629214 0.317519 
-1.47111 0.0980804 0.480311 -1.91552 0.124954 0.60434 -2.38874 0.148074 0.732741 
-2.88582 0.165117 0.863692 -3.37753 0.17249 0.986205 -3.86432 0.169003 1.10122 
-4.35375 0.154112 1.21242 -4.84535 0.126959 1.31976 -5.33659 0.0865983 1.42223 
-5.82694 0.0321336 1.51993 -6.31637 -0.0374582 1.61332 -6.8039 -0.123965 1.70313 
-7.28816 -0.22956 1.79028 -7.76729 -0.357135 1.87622 -8.23904 -0.509852 1.96274 
-8.70003 -0.69096 2.05236 -9.14642 -0.903343 2.14778 -9.57448 -1.14738 2.25112 
-9.98089 -1.42206 2.3639 -10.3653 -1.7237 2.48536 -10.7287 -2.04755 2.61334 
-11.075 -2.389 2.74259 -11.4093 -2.74373 2.86608 -11.7383 -3.10917 2.97338 
-12.0691 -3.48284 3.05052 -12.4062 -3.85672 3.06808 -12.7506 -4.21936 2.9924 
-13.0878 -4.5523 2.81395 -13.3975 -4.83648 2.53754 -13.6747 -5.0765 2.18915 
-13.9221 -5.28841 1.80342 -14.1442 -5.48408 1.39698 -14.3459 -5.6728 0.976707 
-14.5291 -5.86082 0.547268 -14.6937 -6.05261 0.112033 -14.8381 -6.25137 -0.327115 
-14.959 -6.4595 -0.769137 -15.0511 -6.67836 -1.21297 -15.1074 -6.90858 -1.65737 
-15.1202 -7.14959 -2.0994 -15.0813 -7.40001 -2.53492 -14.9862 -7.65718 -2.95786 
-14.8331 -7.9177 -3.36102 -14.6256 -8.1789 -3.73887 -14.371 -8.43877 -4.08726 
-14.0777 -8.69707 -4.40496 -13.7547 -8.9549 -4.69274 -13.4091 -9.21523 -4.94994 
-13.0463 -9.48232 -5.17479 -12.6714 -9.75918 -5.3653 -12.289 -10.0483 -5.51821 
-11.9052 -10.3605 -5.61193 -11.5288 -10.711 -5.61003 -11.199 -11.0782 -5.47688 
-10.9775 -11.4101 -5.18125 -10.8755 -11.6734 -4.75301 -10.8598 -11.852 -4.27251 
-10.899 -11.9537 -3.7814 -10.9649 -12.0056 -3.28555 -11.0419 -12.024 -2.78836 
-11.1257 -12.0141 -2.29211 -11.2132 -11.9823 -1.79764 -11.3016 -11.9363 -1.30446 
-11.3902 -11.8837 -0.812011 -11.4802 -11.8327 -0.319753 -11.5741 -11.794 0.17293 
-11.6758 -11.7819 0.666526 -11.789 -11.8151 1.15659 -11.9172 -11.917 1.6332 
-12.0571 -12.0992 2.08344 -12.1981 -12.3593 2.49164 -12.3294 -12.6866 2.85231 
-12.4404 -13.061 3.17211 -12.5233 -13.4669 3.45845 -12.5738 -13.8949 3.71877 
-12.5882 -14.3373 3.959 -12.5636 -14.7876 4.18313 -12.4978 -15.24 4.39431 
-12.3901 -15.6892 4.59477 -12.2405 -16.1302 4.78636 -12.0502 -16.5585 4.97043 
-11.8212 -16.9702 5.14828 -11.5563 -17.362 5.32115 -11.2586 -17.7312 5.49021 
-10.9313 -18.0756 5.65656 -10.5775 -18.3937 5.8212 -10.2005 -18.6844 5.98502 
-9.80356 -18.947 6.14875 -9.38955 -19.1816 6.31296 -8.9614 -19.3883 6.47812 
-8.52185 -19.5683 6.64463 -8.07347 -19.7229 6.81282 -7.61854 -19.8546 6.98298 
-7.15907 -19.9657 7.15536 -6.69667 -20.0597 7.33015 -6.23267 -20.1396 7.50749 
-5.76789 -20.2085 7.68743 -5.30297 -20.269 7.86991 -4.83824 -20.3235 8.05476 
-4.37389 -20.3736 8.24179 -3.90993 -20.4201 8.43072 -3.44634 -20.463 8.62137 
-2.98304 -20.5015 8.81369 -2.52004 -20.5344 9.00779 -2.05752 -20.5598 9.20414 
-1.59583 -20.5759 9.40342 -1.13564 -20.5814 9.60673 -0.677855 -20.5749 9.81542 
-0.223727 -20.556 10.0312 0.225341 -20.5251 10.2561 0.66771 -20.4836 10.4922 
1.10169 -20.4333 10.7419 1.52555 -20.3771 11.0072 1.93733 -20.3186 11.2906 
2.33432 -20.2643 11.5951 2.71365 -20.2204 11.9229 3.07248 -20.1913 12.275 
3.40598 -20.1864 12.6524 3.70268 -20.2336 13.0584 3.95158 -20.3525 13.4891 
4.14818 -20.5229 13.9125 4.2874 -20.7416 14.3073 4.35631 -21.1065 14.7157 
4.35634 -21.62 15.1293 4.34187 -21.895 15.3262 
LINES 1 129
128 0 1 2 3 4 5 6 7 8 9 10 11 12 13 14 15 16 17 18 19 20 21 22 23 24 25 26 27 28 29 30 31 32 33 34 35 36 37 38 39 40 41 42 43 44 45 46 47 48 49 50 51 52 53 54 55 56 57 58 59 60 61 62 63 64 65 66 67 68 69 70 71 72 73 74 75 76 77 78 79 80 81 82 83 84 85 86 87 88 89 90 91 92 93 94 95 96 97 98 99 100 101 102 103 104 105 106 107 108 109 110 111 112 113 114 115 116 117 118 119 120 121 122 123 124 125 126 127 

CELL_DATA 1
FIELD FieldData 2
Length 1 1 double
59.013952114 
Tortuosity 1 1 double
1.1795289556 
POINT_DATA 128
SCALARS MaximumInscribedSphereRadius float
LOOKUP_TABLE default
0.93 1.018 1.10599 1.17332 1.23914 1.24 1.24 1.24 1.24 
1.24 1.24 1.24 1.24 1.24 1.24 1.24891 1.259 1.27451 
1.29085 1.31965 1.35064 1.3582 1.36109 1.3625 1.36358 1.43704 1.52848 
1.46899 1.36813 1.19877 1.00884 1.08421 1.24434 1.39656 1.54602 1.66591 
1.7746 1.84376 1.89666 1.88717 1.84991 1.76106 1.64744 1.59427 1.57229 
1.55645 1.54399 1.48523 1.3991 1.34138 1.30166 1.30506 1.33771 1.34392 
1.33097 1.3035 1.26491 1.27181 1.31494 1.4431 1.64176 1.76178 1.81296 
1.78822 1.69245 1.68699 1.7718 1.88496 2.0284 2.0683 1.98995 1.89652 
1.78473 1.69042 1.61858 1.58912 1.61775 1.63536 1.63682 1.62936 1.60792 
1.59958 1.61325 1.63106 1.65631 1.69091 1.74354 1.7924 1.83342 1.86412 
1.8717 1.86984 1.84517 1.81116 1.75266 1.7042 1.68441 1.66928 1.66871 
1.67896 1.72622 1.78013 1.85909 1.95385 2.11476 2.25323 2.28666 2.29143 
2.14489 2.00929 1.93944 1.87854 1.87984 1.88067 1.87763 1.87444 1.86975 
1.86575 1.86993 1.87956 1.97558 2.07701 2.29078 2.50066 2.45443 2.40347 
2.28673 2.17 
TEXTURE_COORDINATES TCoords 2 float
0 0 0.00787402 0 0.015748 0 0.023622 0 0.0314961 
0 0.0393701 0 0.0472441 0 0.0551181 0 0.0629921 0 
0.0708661 0 0.0787402 0 0.0866142 0 0.0944882 0 0.102362 
0 0.110236 0 0.11811 0 0.125984 0 0.133858 0 
0.141732 0 0.149606 0 0.15748 0 0.165354 0 0.173228 
0 0.181102 0 0.188976 0 0.19685 0 0.204724 0 
0.212598 0 0.220472 0 0.228346 0 0.23622 0 0.244094 
0 0.251969 0 0.259843 0 0.267717 0 0.275591 0 
0.283465 0 0.291339 0 0.299213 0 0.307087 0 0.314961 
0 0.322835 0 0.330709 0 0.338583 0 0.346457 0 
0.354331 0 0.362205 0 0.370079 0 0.377953 0 0.385827 
0 0.393701 0 0.401575 0 0.409449 0 0.417323 0 
0.425197 0 0.433071 0 0.440945 0 0.448819 0 0.456693 
0 0.464567 0 0.472441 0 0.480315 0 0.488189 0 
0.496063 0 0.503937 0 0.511811 0 0.519685 0 0.527559 
0 0.535433 0 0.543307 0 0.551181 0 0.559055 0 
0.566929 0 0.574803 0 0.582677 0 0.590551 0 0.598425 
0 0.606299 0 0.614173 0 0.622047 0 0.629921 0 
0.637795 0 0.645669 0 0.653543 0 0.661417 0 0.669291 
0 0.677165 0 0.685039 0 0.692913 0 0.700787 0 
0.708661 0 0.716535 0 0.724409 0 0.732283 0 0.740157 
0 0.748031 0 0.755906 0 0.76378 0 0.771654 0 
0.779528 0 0.787402 0 0.795276 0 0.80315 0 0.811024 
0 0.818898 0 0.826772 0 0.834646 0 0.84252 0 
0.850394 0 0.858268 0 0.866142 0 0.874016 0 0.88189 
0 0.889764 0 0.897638 0 0.905512 0 0.913386 0 
0.92126 0 0.929134 0 0.937008 0 0.944882 0 0.952756 
0 0.96063 0 0.968504 0 0.976378 0 0.984252 0 
0.992126 0 1 0 
FIELD FieldData 7
Curvature 1 128 double
0 0.007320625227 0.013735244656 0.019879992204 0.025716940905 0.031268739187 0.036611734091 0.041856637776 0.04713444818 
0.052581482104 0.058315540514 0.06441505827 0.070882280134 0.077607791602 0.084335825714 0.090655920345 0.096024723479 0.09986606652 
0.10173901319 0.10156865525 0.099991543179 0.098611002983 0.10004605715 0.10726324019 0.12198030556 0.14370272732 0.16994854255 
0.19691066147 0.22004406976 0.2349027581 0.23861829178 0.23105149805 0.21486478672 0.19438212646 0.17401261051 0.15730443117 
0.14651588606 0.14241837335 0.1444850728 0.15125734033 0.16089368221 0.17158145484 0.18170865518 0.19009963061 0.19615254516 
0.20015762227 0.2033544076 0.20786265857 0.21663150662 0.23302400876 0.26067001774 0.3031348986 0.36311546377 0.44024567632 
0.52630273692 0.6003355158 0.63254288864 0.60420400462 0.52517537818 0.42421281938 0.32632879191 0.24303641346 0.17591499234 
0.122743914 0.081917119522 0.056835161431 0.057526803686 0.079555142863 0.10908504847 0.13952876554 0.16741775033 0.18994154724 
0.20493330267 0.2114639656 0.21024009413 0.20337041582 0.19356482044 0.18342152592 0.17468692048 0.16818098806 0.1638731467 
0.16118393854 0.15935643926 0.15763607512 0.15553217139 0.1526479235 0.14884330984 0.14405019384 0.1383300873 0.13169787641 
0.12429596894 0.11623362147 0.10762445446 0.098654336943 0.089529225807 0.080420349612 0.071643417746 0.063354077633 0.055852654783 
0.049340310619 0.04394382045 0.039842526801 0.037021207504 0.035463290722 0.035073611262 0.03571505787 0.037162119783 0.039255010891 
0.041895965061 0.045082633896 0.049021194116 0.054131667182 0.061010624307 0.070382604772 0.082818723112 0.09871164847 0.11793816559 
0.13982734227 0.1627644851 0.18394054713 0.19943425246 0.20478647247 0.1965935284 0.17393408879 0.13869005732 0.094527920112 
0.04537115593 0 
Torsion 1 128 double
0 0 0.057235557097 0.075634240299 0.092280629237 0.10620505541 0.117093898 0.12493968921 0.12956968814 
0.13093404592 0.12885546894 0.12279973678 0.11231319351 0.097021703562 0.076406957638 0.049715880567 0.015684092267 -0.027966261082 
-0.084979503152 -0.15993610129 -0.25551993186 -0.36372237858 -0.45115813355 -0.46950724849 -0.40902818413 -0.31124151353 -0.21704536496 
-0.14030843123 -0.080099851832 -0.030640796798 0.014168312412 0.059117125133 0.10871671651 0.16489351447 0.22490702753 0.27884605988 
0.30943459687 0.30393603999 0.26679696433 0.21636119768 0.1699374479 0.13659298534 0.11876101314 0.11570755609 0.12579468184 
0.1469687741 0.17605966229 0.20704713908 0.23109958394 0.23906061439 0.2255074269 0.19290682626 0.14968535619 0.10452034574 
0.064115509753 0.03168088506 0.0079070577674 -0.0075829289738 -0.014930160205 -0.01212634114 0.0054857393422 0.045978610402 0.1276586006 
0.2981194019 0.68415693635 1.3775561302 1.2711926615 0.62986335956 0.32872626938 0.21109012662 0.16723159319 0.15713464222 
0.16528518119 0.18507468578 0.21251774322 0.24360039038 0.27358304144 0.29614211209 0.30573005462 0.30009177389 0.28118688891 
0.25417683668 0.22446339184 0.19629217449 0.17129097348 0.15025378436 0.13303502792 0.1189297078 0.10738796419 0.097964248006 
0.090350889236 0.084204616779 0.079503962967 0.076316507106 0.07457875084 0.074625862046 0.076576117819 0.080597702018 0.087116806766 
0.096542825703 0.10805347918 0.12077932157 0.13516758282 0.14967866452 0.163440183 0.17907557077 0.20020868026 0.22669521901 
0.25955647368 0.29734689052 0.33458484622 0.36408756105 0.37696299034 0.366384488 0.33736018891 0.29623150345 0.25161035073 
0.20929994702 0.17138074049 0.13883474923 0.1112813626 0.088094512653 0.068595791499 0.052009626568 0.037560129417 0.025166613876 
0 0 
Abscissas 1 128 double
0 0.5030957022 1.0061914044 1.5092871235 2.0123828438 2.5154800425 3.0185772608 3.5216691546 4.0247607337 
4.5278581939 5.0309560665 5.5340528392 6.0371495114 6.5402443705 7.0433390279 7.5464353561 8.0495319051 8.5526270852 
9.0557220546 9.5588188715 10.061916014 10.564994918 11.068070194 11.57116329 12.074260356 12.577372828 13.080489127 
13.583593445 14.08669448 14.589771774 15.09284194 15.595939118 16.099044927 16.602137629 17.105225748 17.608325721 
18.111430182 18.614522023 19.117608673 19.620700913 20.123795641 20.626893052 21.129991753 21.633087558 22.136181867 
22.639277366 23.142373523 23.645469528 24.148565442 24.65164711 25.154719761 25.657811688 26.16091669 26.66402708 
27.167141375 27.670245506 28.173341844 28.67643016 29.179512091 29.682601897 30.185698232 30.688795048 31.191892286 
31.694990014 32.198088201 32.701182554 33.204273074 33.707367049 34.210464717 34.713559731 35.216651714 35.719750752 
36.222858375 36.725970597 37.22908873 37.732184163 38.23524848 38.738335686 39.241456399 39.744550552 40.247603121 
40.750688554 41.25382912 41.756949891 42.260035094 42.763113264 43.266177863 43.769259542 44.272376699 44.775488874 
45.278589896 45.781690024 46.284787989 46.787881085 47.290961408 47.794047444 48.297149793 48.800249748 49.303342237 
49.806436531 50.309537007 50.812635997 51.315729378 51.818823962 52.321923586 52.825021701 53.328112746 53.831204915 
54.334303027 54.837401887 55.340505254 55.843607326 56.346700402 56.849794148 57.352893341 57.855990583 58.359068722 
58.862147829 59.365238699 59.868330076 60.371429487 60.874528654 61.377622748 61.880717079 62.383827047 62.886934116 
63.390000881 63.893067647 
ParallelTransportNormals 3 128 double
0.31869914878 0 0.94785592395 0.30081736868 0.001165041935 0.95348346401 0.28293558858 0.0023300838701 0.95911100406 
0.27038202723 0.0030007510809 0.96267000442 0.25821832091 0.0036352458888 0.96607765389 0.24701687556 0.0038828552194 0.9689316998 
0.23582820969 0.0041253264525 0.97177839349 0.22648774681 0.0039550477487 0.97395958569 0.21725656277 0.003760364349 0.97610142874 
0.20837170854 0.0031514629811 0.97800193608 0.19951114219 0.0025135127729 0.97988551871 0.19186565425 0.0015531123114 0.98138920598 
0.18433119824 0.00056324686075 0.98285817902 0.18065072893 -0.00013742139065 0.98354149018 0.17739899684 -0.00080591786492 0.9841374003 
0.18113631616 0.00037982947982 0.98344544698 0.18579765709 0.0018107261693 0.98258322541 0.19982039085 0.0080259294803 0.97964811664 
0.21528344429 0.014977233826 0.97639407881 0.23548882757 0.027412135248 0.97115692009 0.25652967723 0.040813093665 0.96557039073 
0.27114809277 0.052448443928 0.96094088454 0.28448879603 0.063732534968 0.9565017735 0.28038630007 0.05910490927 0.95799491322 
0.27239590482 0.050930735063 0.96081028708 0.23004065115 0.0042790567549 0.9702308113 0.17914962333 -0.051929922225 0.98129196708 
0.069429930875 -0.1686297425 0.96633900978 -0.056412181406 -0.3019075141 0.94425669718 -0.18433076931 -0.42645843762 0.86302088412 
-0.31287278966 -0.54838924842 0.76402506909 -0.38372476778 -0.61283231602 0.68354991454 -0.43614321422 -0.65890649197 0.60899261286 
-0.46224676598 -0.68254595707 0.56469430645 -0.47914980134 -0.69834154032 0.53097549829 -0.48813601806 -0.70767605005 0.5105057486 
-0.49412440435 -0.71456397059 0.49505296752 -0.49825752842 -0.72060622279 0.48196417876 -0.50162752183 -0.72630062365 0.46984777817 
-0.50442868645 -0.73494998481 0.45272517576 -0.50697665897 -0.74491463215 0.43337425642 -0.50628480667 -0.75935541373 0.40747700463 
-0.50403717121 -0.77594566161 0.37843616504 -0.4963417255 -0.79410621478 0.34905320843 -0.48583462444 -0.81307721416 0.31949368269 
-0.47395408736 -0.82850469825 0.29724252456 -0.46131453018 -0.84197388262 0.27903028628 -0.45395171185 -0.84917233206 0.26980456209 
-0.44970816759 -0.85266391985 0.26589109629 -0.45558900434 -0.84837940759 0.26913979813 -0.46787785113 -0.83917317942 0.27692164052 
-0.49661212064 -0.81696687941 0.28911154949 -0.5365003766 -0.78594337674 0.30429119705 -0.61225874137 -0.71693110991 0.30784801178 
-0.71402190643 -0.6203780784 0.30297860598 -0.81245822058 -0.50093580218 0.23382285461 -0.90834352297 -0.36394217367 0.11537267205 
-0.95514880627 -0.28261730532 0.012995336355 -0.96288038972 -0.24561158081 -0.076586046805 -0.96519217574 -0.22745693853 -0.12787544328 
-0.96301084475 -0.22493020843 -0.14742004139 -0.96203445147 -0.22374795051 -0.1562894258 -0.96211291297 -0.2237427019 -0.15581326471 
-0.96239936435 -0.2236239584 -0.15418793581 -0.96288036213 -0.22339905579 -0.15148771588 -0.96231218606 -0.22367425829 -0.15448414913 
-0.96069521929 -0.22444938327 -0.16317515518 -0.956234203 -0.22481035277 -0.1847003785 -0.94873252797 -0.22472853619 -0.21994704892 
-0.93684035027 -0.21767424786 -0.26788149788 -0.91993408349 -0.20265718235 -0.33030578018 -0.90449934418 -0.18257697801 -0.38307250119 
-0.89085542012 -0.15633504956 -0.42408619109 -0.8831169566 -0.14134823834 -0.44735307574 -0.88297004386 -0.14083003518 -0.44780619808 
-0.88422862614 -0.15322621942 -0.44024320366 -0.88741377593 -0.18332466439 -0.42169220149 -0.88789083343 -0.22210230361 -0.40017950191 
-0.88440364064 -0.27358501148 -0.3743313113 -0.8760871704 -0.32941435279 -0.34757304136 -0.86020961335 -0.39204911645 -0.3193898815 
-0.83929437121 -0.45517086354 -0.29136787089 -0.80992828021 -0.5191095381 -0.26361619238 -0.77661875533 -0.58100060876 -0.23647919105 
-0.73622325376 -0.63921232942 -0.21044670628 -0.69325862564 -0.69434809836 -0.1850456506 -0.64533619153 -0.7435480087 -0.16086310354 
-0.59617245589 -0.7894046391 -0.13725527203 -0.54443024633 -0.82831649423 -0.1148412593 -0.49263850404 -0.86405091015 -0.092994679917 
-0.44073586253 -0.89267133217 -0.07241853156 -0.39006452648 -0.91847323254 -0.052565890025 -0.342372861 -0.93745451342 -0.034464082906 
-0.29711432428 -0.95422053394 -0.017329888624 -0.25823927684 -0.96517465867 -0.0027342966141 -0.22237492924 -0.97469604606 0.010761366324 
-0.19510723231 -0.98012644362 0.02111632894 -0.17052787294 -0.98481390164 0.030485814706 -0.15433335807 -0.98718415345 0.036781627647 
-0.13984255907 -0.98924603591 0.042435199248 -0.13118390471 -0.99025231125 0.045890256168 -0.1229661407 -0.99118178852 0.049182065004 
-0.11641307343 -0.9918212946 0.051857488042 -0.10923059325 -0.99248426424 0.05480588657 -0.099410604885 -0.99324555619 0.058898168657 
-0.088566344426 -0.99400017577 0.063448577633 -0.072925200917 -0.99472354718 0.070144491813 -0.056593534367 -0.99533666464 0.077202668238 
-0.036615712651 -0.99536761036 0.08617369084 -0.016712153013 -0.99525300918 0.095219107204 0.0027447260581 -0.9942629549 0.10471199621 
0.021363666876 -0.99323641808 0.11390186959 0.03416659667 -0.99195666112 0.12098855425 0.045618620143 -0.99081044365 0.12733242861 
0.046060342361 -0.99075261398 0.12762217089 0.044810385483 -0.99090055565 0.1265440377 0.027000455729 -0.99306280823 0.1120756695 
0.0074277118425 -0.99514637491 0.095403823191 -0.033552997437 -0.99627436429 0.051972500402 -0.076341209577 -0.99607035981 0.0047173923855 
-0.14776478129 -0.97476424584 -0.10311602362 -0.21845634617 -0.95114616348 -0.21236213908 -0.27394531581 -0.87951224597 -0.35094773168 
-0.32887841512 -0.80711158988 -0.48937728259 -0.3471249347 -0.68410737639 -0.61750832296 -0.36414687919 -0.5693583205 -0.73704013001 
-0.36414687919 -0.5693583205 -0.73704013001 -0.36414687919 -0.5693583205 -0.73704013001 
FrenetTangent 3 128 double
-0.95987259936 0.039194473593 0.27768396829 -0.95987259936 0.039194473593 0.27768396829 -0.96090502679 0.034991137869 0.27465824175 
-0.96245306576 0.028148745038 0.26998471136 -0.96435665367 0.018630016237 0.26394917505 -0.96641907454 0.006390077664 0.25689168784 
-0.96841975626 -0.0086215497442 0.24917633226 -0.97012260783 -0.026461178664 0.24116784984 -0.97127880752 -0.047192615536 0.2332173559 
-0.97162550267 -0.070887592002 0.22565201496 -0.97088114834 -0.097621283648 0.21876901236 -0.96874066223 -0.12745919492 0.21282782472 
-0.96487543247 -0.16043152273 0.2080315513 -0.95894248515 -0.1964946789 0.20449731376 -0.95060867119 -0.23548364195 0.20221426416 
-0.93959544401 -0.27706308262 0.20098868087 -0.92574489029 -0.32069016206 0.20038517425 -0.9090990598 -0.36560595218 0.19967770832 
-0.88997269233 -0.41087054205 0.19782316496 -0.86899199588 -0.45543812646 0.19346582142 -0.84706278357 -0.49826262337 0.18498377996 
-0.82525072811 -0.53839384943 0.17056757794 -0.80458765577 -0.57501397812 0.14831597739 -0.78582253687 -0.60740718443 0.11635915457 
-0.76918068551 -0.63484610907 0.073017058482 -0.75417463984 -0.65645279813 0.017039262325 -0.7395154113 -0.67112573611 -0.052030786834 
-0.72322030856 -0.67761332169 -0.13338879845 -0.70295715033 -0.67485491708 -0.22454862655 -0.67664436872 -0.6625220535 -0.32127391257 
-0.64309836938 -0.6415434784 -0.41814644878 -0.60238087994 -0.61425635214 -0.50973170328 -0.5556360447 -0.58396873217 -0.59181847358 
-0.50446873234 -0.5541796586 -0.66211494779 -0.45028560509 -0.52783497184 -0.72016186816 -0.39389393523 -0.50692581859 -0.76672927571 
-0.33540598823 -0.4924461313 -0.80311869037 -0.27439786552 -0.48454779251 -0.83061377798 -0.21017284074 -0.48276150059 -0.85015805034 
-0.14204505793 -0.48620256452 -0.86222402412 -0.069616208049 -0.49374750551 -0.86681427329 0.0070007781005 -0.50418775555 -0.86356568729 
0.087040854736 -0.51638410045 -0.85192215044 0.16907919178 -0.52942351275 -0.83133806063 0.25117331123 -0.54275543185 -0.80145399676 
0.33114283933 -0.55627526559 -0.76216943579 0.40690601948 -0.57032221683 -0.71355452511 0.47672727368 -0.58557141825 -0.6556197226 
0.53932394463 -0.60282338441 -0.58799119887 0.59374460476 -0.62272951554 -0.50958345224 0.63902303518 -0.64546052306 -0.41836619568 
0.67367343655 -0.67025554774 -0.31132234358 0.69504680561 -0.69480245582 -0.18482284869 0.69873737227 -0.71448064952 -0.035825773422 
0.67864005225 -0.72185432948 0.13555075245 0.62878074812 -0.70765120046 0.32228023408 0.54761518377 -0.66466060013 0.50827541466 
0.44222648941 -0.59328043336 0.67264705415 0.32701635433 -0.5031672498 0.79992688587 0.21670685858 -0.40812562097 0.88683234884 
0.12049993349 -0.31962420589 0.9398511228 0.041402121346 -0.24434025539 0.96880529723 -0.021483992304 -0.18515003979 0.98247539452 
-0.070684446937 -0.14291585093 0.98720756101 -0.10901065404 -0.11771854136 0.98704560296 -0.13893077326 -0.10945073575 0.98423512266 
-0.1623171973 -0.11797584482 0.97966056749 -0.18034497992 -0.14302755604 0.97314891277 -0.19345457793 -0.1839737033 0.96370586943 
-0.20138577875 -0.23948567994 0.9497843846 -0.20331098463 -0.30722260318 0.9296660237 -0.19807971582 -0.38367575544 0.90197413536 
-0.18456515599 -0.46434495486 0.86620982798 -0.16201899333 -0.54430601347 0.82309222418 -0.13028364669 -0.61899596501 0.77451285768 
-0.089803730727 -0.68488744391 0.72309368627 -0.041484812923 -0.7397777686 0.67157119011 0.013519354972 -0.78268398096 0.6222724588 
0.073954807369 -0.81350288106 0.57683944818 0.13853321703 -0.83264258235 0.53620413821 0.20595596629 -0.8407584218 0.5007069164 
0.27490626654 -0.83861388367 0.47026938953 0.34406220055 -0.827036836 0.44455739118 0.41212760397 -0.80692609406 0.42310887106 
0.47789511891 -0.77925967379 0.40542646204 0.54029978796 -0.74510263891 0.39102198995 0.59845996278 -0.70559405021 0.37945053597 
0.65171407739 -0.66191452317 0.37032138116 0.69962768867 -0.61525542102 0.36329308299 0.74197991556 -0.56678993716 0.35807118293 
0.77874654227 -0.51764169191 0.35440217507 0.81008121819 -0.46884553912 0.3520685734 0.83627650677 -0.42133577717 0.3508814146 
0.8577370479 -0.37591548725 0.35067749158 0.87494980134 -0.33322480276 0.3513176283 0.88844484775 -0.29373817827 0.35268064184 
0.89876794067 -0.25773732416 0.35466556156 0.90644784262 -0.22531748413 0.35718950146 0.9119719884 -0.19639795938 0.36018735947 
0.91576944245 -0.1707210602 0.36362157235 0.91819152378 -0.14790713998 0.36748850812 0.9195112488 -0.127473389 0.37181930883 
0.91991772688 -0.10888479705 0.37669016013 0.91951187987 -0.091621215681 0.38223481737 0.91831324373 -0.075215818796 0.38864298141 
0.91626798519 -0.059302860557 0.39615167555 0.91325351787 -0.043680000428 0.40504329356 0.90908589521 -0.028354373649 0.4156427127 
0.90353638673 -0.013553200855 0.42829698645 0.89634433757 0.00025039702019 0.44335850708 0.88722858243 0.012333165849 0.46116519332 
0.87589351664 0.021742911407 0.4820143082 0.86202435346 0.02731458511 0.50613034634 0.84526531711 0.027712778174 0.53362772194 
0.82518735409 0.021517988602 0.56444911801 0.80124699029 0.007286586004 0.59828936662 0.77275579842 -0.016302027391 0.6344940661 
0.73890585312 -0.050223880003 0.67193429895 0.69889386936 -0.094821807344 0.70891197213 0.65221431255 -0.14938429901 0.74316944347 
0.59912154462 -0.21177444485 0.77214309508 0.54114877475 -0.2782836669 0.7935465987 0.4813869877 -0.34399812462 0.80618351405 
0.42420810161 -0.40372946457 0.81058621131 0.37444365432 -0.45308788741 0.80901379223 0.33640396179 -0.48913927674 0.80472053686 
0.31320557925 -0.51040575873 0.80086717162 0.31320557925 -0.51040575873 0.80086717162 
FrenetNormal 3 128 double
-0.20072652862 -0.78751004335 -0.58269785681 -0.20072652862 -0.78751004335 -0.58269785681 -0.191511629 -0.80040738067 -0.56804165421 
-0.1769154877 -0.8193951546 -0.5452453492 -0.15719108753 -0.84276108238 -0.51482494115 -0.13263995385 -0.86862772673 -0.47738089091 
-0.10366076782 -0.89500529898 -0.43384324359 -0.070675510942 -0.92010022702 -0.38525387004 -0.03413616793 -0.94235909367 -0.33285741785 
0.005461626138 -0.96050172637 -0.2782204239 0.047648856919 -0.97365092739 -0.22300999537 0.091932913177 -0.98128167772 -0.16921763632 
0.13779289389 -0.98326434277 -0.11918200635 0.18470754666 -0.97989638211 -0.075406912982 0.23211966729 -0.97184201561 -0.040540803542 
0.27935479712 -0.96002928803 -0.017454611353 0.32550686192 -0.94549342224 -0.0093526112256 0.36923069101 -0.92911922028 -0.020153692656 
0.40840130632 -0.91113966642 -0.055071601376 0.43948180721 -0.89003582606 -0.12121043467 0.45661126692 -0.86034809735 -0.22651115269 
0.45087726282 -0.80994169607 -0.37510550895 0.4134170771 -0.72168198613 -0.55521296027 0.34686839181 -0.58863679091 -0.73019795067 
0.27281706361 -0.42955594298 -0.86084408673 0.21744430751 -0.2741296126 -0.9367875579 0.19342849305 -0.13783026992 -0.97138469968 
0.20064044789 -0.021342452159 -0.979432443 0.23396978967 0.078725662133 -0.96905129258 0.28680768553 0.16471358329 -0.94372177415 
0.35349152554 0.23568420979 -0.90526056726 0.42951720018 0.28881728398 -0.85562816178 0.51227837404 0.32018844615 -0.79690038677 
0.60097396954 0.32523719109 -0.73010345669 0.69415624401 0.30035433221 -0.65416693896 0.78735666342 0.24431524213 -0.56602080088 
0.87102737092 0.16267865365 -0.46351588404 0.93436212883 0.069839795469 -0.34941353033 0.97270359091 -0.015766911715 -0.2315148564 
0.98977417124 -0.081247420281 -0.11724310918 0.9923454836 -0.12312158124 -0.0095664737973 0.98514656387 -0.14469422415 0.092465286404 
0.96970131755 -0.15202798847 0.1912245943 0.94531606591 -0.15158083373 0.28879194305 0.91019359501 -0.14927946091 0.38634603938 
0.8620408201 -0.15011623683 0.48409786193 0.79830107073 -0.15766975594 0.58125351486 0.71659727759 -0.17309491439 0.67566744213 
0.61604823006 -0.19360344724 0.76354586205 0.49849057794 -0.21246233147 0.84045636497 0.36892751837 -0.22006625168 0.90303008314 
0.23331011396 -0.20682944319 0.9501515522 0.09526547274 -0.16580018547 0.98154714008 -0.044674954306 -0.093562719698 0.99461055994 
-0.18621976173 0.0094165935456 0.98246299071 -0.32553792293 0.13682706853 0.93557651427 -0.4527396373 0.27547977878 0.8480198773 
-0.55563087369 0.40750395624 0.72471708815 -0.62704391895 0.51775613029 0.5820176228 -0.66908761837 0.59941020742 0.4393508418 
-0.69141257635 0.65233616991 0.310493431 -0.70727553443 0.67771646516 0.20115096629 -0.73233951503 0.67189660656 0.11060644118 
-0.78708837099 0.61596670906 0.032816300699 -0.89386002724 0.44602892887 -0.045524128923 -0.99010150856 -0.0046509600692 -0.14027605397 
-0.75662267264 -0.62241093278 -0.20031665433 -0.41418761112 -0.8863345561 -0.20702578933 -0.20783460748 -0.95228472534 -0.22351415574 
-0.079295070366 -0.96248207975 -0.25950055485 0.018278223843 -0.95052246817 -0.31011762936 0.1061697848 -0.92319141936 -0.36938540849 
0.19396693687 -0.88122598339 -0.43106564883 0.28598502759 -0.82421546319 -0.48875498384 0.38389184884 -0.75173248231 -0.53621387843 
0.48700809932 -0.66350552084 -0.5679643783 0.59221328025 -0.5595595795 -0.57980730221 0.69371478286 -0.44085277762 -0.56956880928 
0.78350860479 -0.31044949807 -0.53827072683 0.85406513368 -0.17365921261 -0.49032155297 0.900829115 -0.036959040956 -0.43259789049 
0.92337452889 0.093959369878 -0.37222455079 0.9244469634 0.21548867818 -0.31458296431 0.90811487167 0.32606498789 -0.26269564809 
0.87841115091 0.42561697332 -0.21735694602 0.83871201122 0.51446198418 -0.17858059544 0.79170584595 0.59338257058 -0.14525487401 
0.7395468464 0.6629350833 -0.11656559231 0.68396649381 0.72375775829 -0.09145787369 0.62646377382 0.77637126311 -0.069215618991 
0.56827987782 0.82137462864 -0.049007141192 0.51049456121 0.85934976182 -0.030220685556 0.45400535955 0.89091467996 -0.0122542457 
0.3995067923 0.91671362676 0.0055180987489 0.34745072832 0.93739613074 0.023800954976 0.29813287432 0.95354846253 0.043152275266 
0.25146910194 0.96571155848 0.064532755888 0.20726751927 0.97426525625 0.08858547242 0.16501066317 0.9794173123 0.11624633074 
0.1239463265 0.98111699283 0.14848149557 0.083089065966 0.97895282391 0.18640701615 0.041922576596 0.9723613332 0.22968660229 
-0.00053630471999 0.96032091123 0.27889686236 -0.04476635865 0.94171536212 0.33341888051 -0.091085313791 0.91528946343 0.39236292351 
-0.13933713764 0.88003186664 0.4540144004 -0.19039324738 0.83321616235 0.5191350866 -0.24453761082 0.77141269821 0.58747238738 
-0.30138602628 0.69040572682 0.65765218432 -0.35976108081 0.58483954047 0.72700390414 -0.41650319886 0.45125576498 0.78923590891 
-0.46685211886 0.29057347646 0.83523419105 -0.50582160651 0.110452784 0.85553765838 -0.53064497289 -0.07381369535 0.84437399956 
-0.54308226931 -0.24456657931 0.80327382445 -0.5482775243 -0.39142851051 0.73903685802 -0.55269385791 -0.50877503053 0.66005868508 
-0.56103106659 -0.59815182845 0.57223992559 -0.57587887654 -0.66241202688 0.47913862942 -0.59738908057 -0.70479790666 0.38260449185 
-0.62373123054 -0.72811520715 0.28426677113 -0.65184983693 -0.73498838014 0.18677224408 -0.67834560435 -0.72868954453 0.094121138711 
-0.70049254947 -0.71357209557 0.011182690251 -0.71697053464 -0.69474854599 -0.057251290895 -0.72787075083 -0.67725412238 -0.10738260475 
-0.73373812533 -0.66544643987 -0.13714736271 -0.73373812533 -0.66544643987 -0.13714736271 
FrenetBinormal 3 128 double
0.19584037814 -0.61505424547 0.76377668295 0.19584037814 -0.61505424547 0.76377668295 0.19996206002 -0.59843432826 0.77581668538 
0.20587619198 -0.57253753481 0.79360932757 0.21285489545 -0.53796531535 0.81565072976 0.22009274186 -0.49542410041 0.84030598338 
0.22675453886 -0.44597217814 0.86584709703 0.23209286488 -0.39078815009 0.89073987439 0.23548290829 -0.33125850271 0.91368244171 
0.23646152582 -0.26909363228 0.93363513423 0.23477517378 -0.20609210703 0.94995087304 0.2304123886 -0.14436212314 0.96232515741 
0.22367055732 -0.086330520444 0.97083393175 0.21520323506 -0.034538695409 0.97595832193 0.20606701413 0.0083994683326 0.97850183169 
0.19779104862 0.039746878864 0.97943804638 0.19246215457 0.056568617191 0.97967255275 0.19289270665 0.055405435176 0.97965434796 
0.20287183124 0.031779017642 0.97868948811 0.22739536546 -0.020306188719 0.97359077978 0.27201248429 -0.10740348938 0.9562811819 
0.34010429228 -0.23265105171 0.91115451956 0.42629218213 -0.3854011363 0.81837701556 0.51202076063 -0.53344469319 0.67325440956 