# vtk DataFile Version 4.2
vtk output
ASCII
DATASET POLYDATA
POINTS 128 float
0 0 0 -0.255373 0.195392 0.10865 -0.756697 0.547811 0.350023 
-1.1797 0.771916 0.617962 -1.53488 0.882101 0.901376 -1.9089 0.959739 1.21169 
-2.29891 1.00058 1.5389 -2.68174 0.98012 1.86791 -3.05744 0.892238 2.18787 
-3.43065 0.735552 2.48771 -3.79439 0.505111 2.74876 -4.13849 0.198163 2.95177 
-4.45494 -0.170657 3.08686 -4.73816 -0.581406 3.14958 -4.99204 -1.01616 3.14819 
-5.2237 -1.459 3.09465 -5.44022 -1.90153 2.9973 -5.64813 -2.33833 2.86259 
-5.8507 -2.7655 2.69335 -6.04943 -3.17984 2.49073 -6.2423 -3.57849 2.25397 
-6.42533 -3.95879 1.98154 -6.5905 -4.31829 1.67193 -6.7275 -4.65474 1.32418 
-6.822 -4.96687 0.941607 -6.85876 -5.25412 0.530333 -6.82964 -5.51867 0.103255 
-6.73115 -5.76427 -0.324006 -6.57046 -5.99706 -0.739905 -6.35989 -6.22425 -1.13557 
-6.11071 -6.45149 -1.50775 -5.83326 -6.68362 -1.85601 -5.5342 -6.92552 -2.17872 
-5.21814 -7.18184 -2.47356 -4.88975 -7.45483 -2.73779 -4.55346 -7.74674 -2.96645 
-4.21061 -8.07462 -3.13293 -3.86541 -8.46008 -3.19647 -3.57807 -8.87057 -3.10777 
-3.43728 -9.24128 -2.82142 -3.44876 -9.53672 -2.39407 -3.56743 -9.74287 -1.93853 
-3.75678 -9.87689 -1.49497 -3.98726 -9.9725 -1.06038 -4.24496 -10.0441 -0.634995 
-4.52565 -10.094 -0.221334 -4.82615 -10.1237 0.179649 -5.14399 -10.1341 0.567893 
-5.47909 -10.1202 0.941484 -5.83271 -10.0722 1.29672 -6.20242 -9.97323 1.62297 
-6.58248 -9.8025 1.90518 -6.95775 -9.55826 2.13764 -7.3071 -9.25324 2.32261 
-7.62652 -8.89766 2.47443 -7.92343 -8.50132 2.61925 -8.16559 -8.10613 2.82256 
-8.28967 -7.78026 3.176 -8.27338 -7.58207 3.65487 -8.13223 -7.55562 4.13813 
-7.90413 -7.67021 4.5766 -7.641 -7.84198 4.97772 -7.36322 -8.03416 5.34716 
-7.06628 -8.2479 5.68797 -6.74862 -8.48022 6.00062 -6.4117 -8.72406 6.28337 
-6.05531 -8.97598 6.53162 -5.67786 -9.23587 6.73792 -5.27993 -9.50482 6.88677 
-4.86495 -9.78486 6.9554 -4.45327 -10.0765 6.92312 -4.08122 -10.379 6.77276 
-3.778 -10.6927 6.51658 -3.56435 -11.0197 6.19582 -3.44497 -11.3642 5.8482 
-3.40854 -11.7324 5.5063 -3.44246 -12.1269 5.19552 -3.53347 -12.5472 4.9338 
-3.66737 -12.99 4.73526 -3.82892 -13.4501 4.61005 -4.00271 -13.9205 4.56457 
-4.17318 -14.3928 4.60095 -4.32586 -14.8583 4.71754 -4.44774 -15.308 4.90837 
-4.52844 -15.7335 5.16521 -4.56086 -16.1271 5.47726 -4.54021 -16.4827 5.83285 
-4.46447 -16.7961 6.21931 -4.33323 -17.0644 6.6242 -4.14801 -17.287 7.03553 
-3.91203 -17.4641 7.44285 -3.63071 -17.5968 7.83788 -3.31069 -17.6867 8.21489 
-2.96017 -17.7361 8.57165 -2.58636 -17.7482 8.90697 -2.19473 -17.7281 9.22079 
-1.78951 -17.6816 9.51353 -1.3731 -17.6159 9.78619 -0.947401 -17.5385 10.0405 
-0.513659 -17.4569 10.2795 -0.0732999 -17.3781 10.507 0.371813 -17.308 10.7279 
0.819785 -17.2512 10.947 1.26876 -17.2107 11.1676 1.7172 -17.1887 11.392 
2.16423 -17.1863 11.6202 2.60927 -17.2042 11.8516 3.0522 -17.2425 12.0846 
3.49292 -17.3011 12.3175 3.93122 -17.3804 12.5489 4.36653 -17.4806 12.7778 
4.79743 -17.6036 13.0041 5.2215 -17.7519 13.2285 5.63397 -17.9298 13.4524 
6.02791 -18.1435 13.6781 6.39131 -18.4048 13.9095 6.70387 -18.7237 14.149 
6.92304 -19.1039 14.3936 7.01402 -19.5382 14.6366 6.97904 -19.9889 14.8641 
6.83221 -20.4225 15.0658 6.60239 -20.8377 15.2478 6.32251 -21.2339 15.4159 
6.02934 -21.5946 15.5656 5.73479 -21.9223 15.6998 5.36172 -22.2984 15.8563 
4.90481 -22.7362 16.0427 4.66982 -22.9577 16.1378 
LINES 1 129
128 0 1 2 3 4 5 6 7 8 9 10 11 12 13 14 15 16 17 18 19 20 21 22 23 24 25 26 27 28 29 30 31 32 33 34 35 36 37 38 39 40 41 42 43 44 45 46 47 48 49 50 51 52 53 54 55 56 57 58 59 60 61 62 63 64 65 66 67 68 69 70 71 72 73 74 75 76 77 78 79 80 81 82 83 84 85 86 87 88 89 90 91 92 93 94 95 96 97 98 99 100 101 102 103 104 105 106 107 108 109 110 111 112 113 114 115 116 117 118 119 120 121 122 123 124 125 126 127 

CELL_DATA 1
FIELD FieldData 2
Length 1 1 double
53.3084672 
Tortuosity 1 1 double
0.87388793768 
POINT_DATA 128
SCALARS MaximumInscribedSphereRadius float
LOOKUP_TABLE default
0.9796 0.961039 0.942479 1.02216 1.10657 1.14435 1.18017 1.10502 1.02322 
1.18417 1.36469 1.16177 0.920983 1.02122 1.1606 1.29113 1.42045 1.36289 
1.27482 1.27092 1.28319 1.40456 1.55013 1.49443 1.38795 1.2763 1.16318 
1.29185 1.49555 1.55318 1.56073 1.69413 1.8754 2.05101 2.22423 2.28457 
2.29257 2.09769 1.80151 1.72534 1.75157 1.70776 1.63368 1.68975 1.80644 
1.92209 2.03722 2.05839 2.02683 2.00585 1.99137 2.04047 2.1316 2.19135 
2.22916 2.31174 2.42819 2.41605 2.301 2.16812 2.0237 1.90818 1.8127 
1.71569 1.61754 1.63022 1.73375 1.88558 2.08034 2.25772 2.4185 2.39821 
2.19815 1.90809 1.52559 1.34225 1.37594 1.42286 1.48516 1.6082 1.80657 
1.92461 1.93638 1.86754 1.68491 1.58424 1.60725 1.69878 1.90114 2.01659 
1.98074 1.97295 2.01797 2.05401 2.07165 2.05008 1.9404 1.83791 1.7533 
1.77848 2.10757 2.31805 2.16052 2.03495 2.02134 2.04194 2.19885 2.35815 
2.52843 2.64308 2.46054 2.31239 2.3822 2.4693 2.6891 2.88053 2.8046 
2.71083 2.42213 2.14604 2.0153 1.91025 2.18031 2.44821 2.67255 2.89055 
2.99528 3.1 
TEXTURE_COORDINATES TCoords 2 float
0 0 0.00787402 0 0.015748 0 0.023622 0 0.0314961 
0 0.0393701 0 0.0472441 0 0.0551181 0 0.0629921 0 
0.0708661 0 0.0787402 0 0.0866142 0 0.0944882 0 0.102362 
0 0.110236 0 0.11811 0 0.125984 0 0.133858 0 
0.141732 0 0.149606 0 0.15748 0 0.165354 0 0.173228 
0 0.181102 0 0.188976 0 0.19685 0 0.204724 0 
0.212598 0 0.220472 0 0.228346 0 0.23622 0 0.244094 
0 0.251969 0 0.259843 0 0.267717 0 0.275591 0 
0.283465 0 0.291339 0 0.299213 0 0.307087 0 0.314961 
0 0.322835 0 0.330709 0 0.338583 0 0.346457 0 
0.354331 0 0.362205 0 0.370079 0 0.377953 0 0.385827 
0 0.393701 0 0.401575 0 0.409449 0 0.417323 0 
0.425197 0 0.433071 0 0.440945 0 0.448819 0 0.456693 
0 0.464567 0 0.472441 0 0.480315 0 0.488189 0 
0.496063 0 0.503937 0 0.511811 0 0.519685 0 0.527559 
0 0.535433 0 0.543307 0 0.551181 0 0.559055 0 
0.566929 0 0.574803 0 0.582677 0 0.590551 0 0.598425 
0 0.606299 0 0.614173 0 0.622047 0 0.629921 0 
0.637795 0 0.645669 0 0.653543 0 0.661417 0 0.669291 
0 0.677165 0 0.685039 0 0.692913 0 0.700787 0 
0.708661 0 0.716535 0 0.724409 0 0.732283 0 0.740157 
0 0.748031 0 0.755906 0 0.76378 0 0.771654 0 
0.779528 0 0.787402 0 0.795276 0 0.80315 0 0.811024 
0 0.818898 0 0.826772 0 0.834646 0 0.84252 0 
0.850394 0 0.858268 0 0.866142 0 0.874016 0 0.88189 
0 0.889764 0 0.897638 0 0.905512 0 0.913386 0 
0.92126 0 0.929134 0 0.937008 0 0.944882 0 0.952756 
0 0.96063 0 0.968504 0 0.976378 0 0.984252 0 
0.992126 0 1 0 
FIELD FieldData 7
Curvature 1 128 double
0 0.046621739958 0.088033603104 0.12858331501 0.16786695761 0.20528550537 0.23990840451 0.27033806329 0.29469170802 
0.31091851983 0.31749318003 0.31423525656 0.30267960967 0.28571290234 0.26668181839 0.24844281396 0.23291050545 0.22095140016 
0.21263810011 0.20753311322 0.20492050929 0.20390717352 0.20343445517 0.20235290247 0.19965265027 0.19467372022 0.18758332087 
0.17952273545 0.17269442219 0.17028368759 0.17616863172 0.19451437917 0.22975540775 0.28725648172 0.37414106247 0.49760119393 
0.65617465125 0.82065802013 0.92351616429 0.9044216063 0.78019208869 0.62276109283 0.48552382111 0.38397998753 0.31392355996 
0.26639720459 0.23328358035 0.20831220784 0.18702230747 0.16700768948 0.14875842924 0.13750960624 0.14470399547 0.18171106867 
0.25092793579 0.34766566776 0.45967213479 0.56094336023 0.61672500155 0.60821071722 0.55028856659 0.47559205145 0.40925218917 
0.36153958743 0.33321131843 0.32113912801 0.32099341231 0.32801260558 0.33688424158 0.34216472111 0.33942171226 0.32676369184 
0.30582140421 0.28101672995 0.25807079802 0.24190667014 0.23540095887 0.23868781754 0.2497231781 0.26551603439 0.28306433932 
0.29985425283 0.31395496828 0.3240106797 0.32921041727 0.32920809364 0.32402670614 0.31390721106 0.29944656873 0.28115927115 
0.25981671824 0.23624835694 0.21122917576 0.18552407575 0.15982163088 0.13470313607 0.11074978979 0.08843867891 0.068494500595 
0.052023588659 0.040977299085 0.037673472606 0.041825572105 0.050186007358 0.060190820174 0.070864196941 0.082237960065 0.094783127205 
0.1093540894 0.12697918954 0.14882722933 0.17608217128 0.20952097745 0.24922206475 0.29329157253 0.33698875559 0.3722729899 
0.38970860217 0.38305206871 0.3530944686 0.30706256886 0.25415260081 0.2014474771 0.15261468569 0.1085463959 0.068658672036 
0.031654206767 0 
Torsion 1 128 double
0 0 -0.06198621119 -0.084233192381 -0.10592785073 -0.12552295653 -0.14176525763 -0.15382498034 -0.16158668985 
-0.16576751579 -0.16736831486 -0.16709955495 -0.16486279289 -0.15914249937 -0.14728910241 -0.1263263854 -0.09403258167 -0.050617333496 
0.00081843800975 0.055156598286 0.10713484123 0.15287086589 0.19089920335 0.22288237725 0.25250891342 0.28489674022 0.32539640725 
0.37768836231 0.43991456334 0.49900826867 0.53072868362 0.51581655679 0.45960374643 0.38560714272 0.3136463843 0.25201230917 
0.20223939599 0.16373298346 0.13590128883 0.11656583672 0.10028256331 0.080654490145 0.05375957875 0.01831448928 -0.025204216886 
-0.075356220818 -0.13186428585 -0.19869887493 -0.28789206107 -0.4235933581 -0.63995529834 -0.92457803061 -1.0630535633 -0.87962529481 
-0.60635557447 -0.40459992086 -0.27425897562 -0.18924580924 -0.13090116727 -0.087591328478 -0.05330728689 -0.027914293663 -0.015585657812 
-0.021023998876 -0.045341092381 -0.084196669164 -0.13069331436 -0.17932587236 -0.22797892045 -0.27768865653 -0.33166018603 -0.39393989514 
-0.46688845771 -0.54840054608 -0.62659379248 -0.67883183114 -0.6834217542 -0.64000054265 -0.57012653396 -0.49689192911 -0.43235159906 
-0.37910749045 -0.33552408211 -0.29875751258 -0.26643349223 -0.23702244107 -0.20979801403 -0.18447411459 -0.16154886707 -0.14191432397 
-0.12587907952 -0.11452656015 -0.10877717793 -0.10961454992 -0.11903731945 -0.1402152109 -0.17955719083 -0.24976362887 -0.3743129516 
-0.58900828071 -0.86204348939 -0.92440264481 -0.67911766611 -0.42883720924 -0.27723774759 -0.194856427 -0.1517193 -0.13054169365 
-0.12101403469 -0.11633405019 -0.1122277223 -0.10701058593 -0.10009325624 -0.091782884651 -0.082838152672 -0.073871579774 -0.065608385292 
-0.058405379768 -0.052109986101 -0.046574608157 -0.041424569483 -0.036302588791 -0.031039146252 -0.025263593118 -0.019569934152 -0.01408400507 
0 0 
Abscissas 1 128 double
0 0.50181944736 1.0036388947 1.5054580967 2.0072772869 2.5090955644 3.0109138038 3.5127320163 4.0145502273 
4.5163715232 5.0181930679 5.5200120713 6.0218308237 6.5236493341 7.0254678167 7.5272882835 8.0291090217 8.5309273852 
9.0327453609 9.5345648425 10.036384613 10.538202114 11.040019112 11.541841181 12.04366453 12.545483526 13.047301296 
13.549119775 14.050938476 14.552757561 15.054576777 15.556396691 16.05821687 16.560035278 17.061852941 17.563672244 
18.065492308 18.567312335 19.069132344 19.570953259 20.072774596 20.574594487 21.076413753 21.578230177 22.080045275 
22.581864586 23.083686051 23.585505352 24.087323437 24.589141767 25.090960247 25.592779766 26.094599972 26.596420755 
27.098241941 27.600061498 28.101879822 28.603699563 29.105520437 29.607340368 30.10915969 30.61097915 31.112798706 
31.614617487 32.116435684 32.618254193 33.120072958 33.621892587 34.123712982 34.625527322 35.127335882 35.629163519 
36.131010098 36.632829254 37.134620242 37.636440299 38.138292032 38.640125539 39.14193787 39.643755146 40.145578554 
40.647398481 41.149213803 41.651020541 42.152815162 42.654623417 43.156452249 43.658278057 44.160098974 44.661919798 
45.163740462 45.665559512 46.167375525 46.669192989 47.171013427 47.672833437 48.174652487 48.676471347 49.178289735 
49.680110953 50.181940006 50.683763904 51.185571802 51.687384242 52.189212595 52.691039416 53.19286014 53.694679453 
54.196492309 54.698308455 55.200142185 55.701972087 56.203777734 56.705584212 57.207397061 57.709213089 58.211059074 
58.712899373 59.214677593 59.716459467 60.218283481 60.720109352 61.221962326 61.723813296 62.225623947 62.727433961 
63.229232586 63.73103121 
ParallelTransportNormals 3 128 double
0.42157006103 0 0.9067958335 0.4884110693 -0.038079046642 0.86728478318 0.55525207756 -0.076158093283 0.82777373287 
0.59219359259 -0.087579790051 0.7997073832 0.62769853515 -0.0977206887 0.77219091382 0.64161315731 -0.098107466857 0.76053484966 
0.65462450945 -0.098086163774 0.7495423342 0.64558313148 -0.10146758111 0.75679209177 0.63522034172 -0.10505289134 0.76513493643 
0.60342509088 -0.12956772484 0.78537333964 0.56990125302 -0.15577058203 0.80657115241 0.53174945855 -0.20370013571 0.81950469547 
0.49314062012 -0.25377535677 0.83162208252 0.46229305452 -0.30676645215 0.82970311582 0.43233622144 -0.36009219163 0.82617324882 
0.4065860231 -0.41182420264 0.81338342856 0.38141121039 -0.46333822268 0.79932702721 0.35636640575 -0.51552250546 0.77673071607 
0.331342829 -0.56781622968 0.75273999652 0.30660938082 -0.619869036 0.71918474048 0.28193164078 -0.6718755832 0.6837929793 
0.26295890039 -0.7171752349 0.64226807253 0.24525210409 -0.760986621 0.59938221574 0.23877548141 -0.78787569119 0.56641191584 
0.23513195846 -0.81049567258 0.53594306981 0.23371246172 -0.81345734714 0.53257953053 0.23291985586 -0.81087789406 0.53685622016 
0.22197162161 -0.79727897183 0.5601687075 0.20787189697 -0.78026049251 0.58938837569 0.18441628913 -0.75853318918 0.62309343579 
0.15775329608 -0.73519160615 0.65833617859 0.12145521259 -0.70495306954 0.69597419196 0.081492963509 -0.67209166392 0.73452311199 
0.019580077522 -0.61788086996 0.77933376739 -0.051577879802 -0.55467823586 0.82678171257 -0.18748595251 -0.40494354476 0.86151435192 
-0.35341844953 -0.21508421172 0.89035094405 -0.5101544252 0.079429676182 0.75054293247 -0.66229784803 0.42620588744 0.52651728865 
-0.68274158131 0.61904596556 0.30371739395 -0.64189045693 0.74024203751 0.081487979846 -0.59792700252 0.79350920983 -0.050226111034 
-0.55261840025 0.81741753758 -0.14281951368 -0.51469514191 0.82966368969 -0.20772550561 -0.48021275741 0.83647636768 -0.25973177502 
-0.44322872791 0.83964183539 -0.30858401772 -0.4049655621 0.84094241856 -0.35582354957 -0.34603718061 0.83454033627 -0.41817139734 
-0.27551260823 0.82381593862 -0.48899720723 -0.17239279617 0.78565194332 -0.57413853599 -0.049283743561 0.73066043813 -0.66805894885 
0.058177274246 0.6595057417 -0.73850889603 0.15529685697 0.57766915486 -0.79344773909 0.19318521314 0.54672394346 -0.81470206691 
0.18966489554 0.55135699853 -0.81240748004 0.14792631724 0.65469771186 -0.69734747692 0.077261585957 0.83274702708 -0.49693901414 
0.082368493287 0.93054600975 -0.25710454669 0.14811697806 0.96411902549 0.01428335104 0.20190926981 0.96116717571 0.16726564384 
0.24796647269 0.93458547317 0.24364513543 0.28142429722 0.91333563413 0.29180724157 0.30614713582 0.89578230706 0.32040659963 
0.32737507935 0.8806332183 0.34158010896 0.34596881463 0.86729627677 0.35715653119 0.36971116611 0.85066428578 0.37225674111 
0.39767377662 0.83133138224 0.3869666055 0.44798884027 0.79634095834 0.3991288995 0.51817469798 0.74743137486 0.4090264646 
0.61518913458 0.66984768903 0.38859739772 0.737807843 0.56489842734 0.33922563761 0.84014280174 0.44783843258 0.25624060583 
0.92233748931 0.31875337085 0.13988006816 0.97073637548 0.1948953887 0.029563688792 0.98442212939 0.076406366536 -0.074544473639 
0.98233294163 -0.031516961611 -0.15642862912 0.96305430292 -0.12792718987 -0.21409599283 0.94274653953 -0.20945207809 -0.25271771269 
0.92124304755 -0.27368185414 -0.26921050932 0.9055426065 -0.32026953402 -0.27737793688 0.89703994402 -0.34497494826 -0.27521904404 
0.89341947123 -0.35423128675 -0.27607086959 0.89625649394 -0.34305369228 -0.28090486328 0.89874469057 -0.32339712538 -0.29424308176 
0.90074052473 -0.29177262342 -0.31958487857 0.89794091145 -0.2578697146 -0.35334078952 0.88790480267 -0.22052861126 -0.39979388874 
0.87096646806 -0.18521558442 -0.45137428414 0.842864114 -0.15318287408 -0.51124783531 0.80981666305 -0.12601856733 -0.57016047995 
0.7681606517 -0.10732931115 -0.62740035212 0.72657883182 -0.093278703186 -0.67923677631 0.68513667248 -0.087960044534 -0.72090156607 
0.64525227305 -0.085052629126 -0.75841872444 0.60856028881 -0.087086725924 -0.78743588134 0.57312446463 -0.090034963771 -0.81401069421 
0.54051233265 -0.095038077471 -0.8350954202 0.51024164524 -0.099853334824 -0.8539824682 0.48578952594 -0.10420176287 -0.86740821285 
0.465171037 -0.10778076607 -0.87860106425 0.45516289506 -0.10923023049 -0.8836139322 0.4478894475 -0.11030379375 -0.88725831551 
0.44910161107 -0.11021095573 -0.88665636387 0.45059272565 -0.11014362263 -0.88590716432 0.45306110892 -0.11016564267 -0.88464210084 
0.45467974722 -0.1101472866 -0.88381696919 0.45291204001 -0.10996802646 -0.88474502377 0.45056487461 -0.1096426455 -0.88597906562 
0.44556231185 -0.10864765827 -0.88861531011 0.44099506942 -0.1076986978 -0.89102317843 0.43875412566 -0.10699569873 -0.89221063245 
0.43812502527 -0.10702752294 -0.89249919567 0.44770964804 -0.11171568155 -0.88709178246 0.45986814202 -0.11909862993 -0.87967366211 
0.49178405382 -0.14716718496 -0.85682105494 0.52385186774 -0.18062143729 -0.83124124838 0.55735106032 -0.26482529237 -0.77996295233 
0.58673979788 -0.34979515158 -0.72910390483 0.57125038694 -0.44312828122 -0.68282223349 0.55475124701 -0.53288279644 -0.63853857242 
0.52661050075 -0.58137790433 -0.61729084356 0.49902148512 -0.62824884932 -0.59678661091 0.47948426906 -0.65141722317 -0.58713275025 
0.46027080934 -0.67409291669 -0.57768242427 0.44757042985 -0.68685724715 -0.57232665195 0.43554310881 -0.69894513007 -0.56725470956 
0.43554310881 -0.69894513007 -0.56725470956 0.43554310881 -0.69894513007 -0.56725470956 
FrenetTangent 3 128 double
-0.80659988222 0.24943509544 0.53589062613 -0.80659988222 0.24943509544 0.53589062613 -0.81144346567 0.21903942244 0.54183136993 
-0.81823752847 0.17018132665 0.54911352475 -0.82556552092 0.1036157352 0.55471195236 -0.83162758991 0.020762915503 0.5549454505 
-0.83438584779 -0.076007438071 0.54591494426 -0.83176154652 -0.1831575762 0.52404773829 -0.82191070475 -0.29592832573 0.48671266622 
-0.80357789536 -0.40858024398 0.43281029369 -0.77645032742 -0.51502350601 0.36314690871 -0.74133651353 -0.60976018448 0.28037954833 
-0.70001040979 -0.6888211178 0.1884433439 -0.65472720426 -0.75028895497 0.091644814646 -0.60759704084 -0.79422126614 -0.0061980942533 
-0.56008016164 -0.82210315424 -0.10225759789 -0.51274450415 -0.83615667038 -0.19476934064 -0.46527333691 -0.83877758846 -0.2827947649 
-0.41665237099 -0.83219729973 -0.36585305256 -0.36545024079 -0.81835096801 -0.44356263894 -0.31014107682 -0.79888312119 -0.51536227175 
-0.24943300524 -0.77523091643 -0.58034489927 -0.18258200592 -0.74873954568 -0.6372228055 -0.10964793262 -0.72077989302 -0.68443675872 
-0.031606802292 -0.69284629854 -0.72039226581 0.049705851197 -0.66659860421 -0.74375777591 0.13185535998 -0.64382693022 -0.75372478264 
0.21221525071 -0.62634545977 -0.75010402772 0.28835820093 -0.61585727949 -0.73319121603 0.35831642589 -0.61383082811 -0.70343518066 
0.4206204111 -0.62142332446 -0.6609928302 0.47409031584 -0.63944690408 -0.60526525531 0.51741224481 -0.66829949619 -0.53447203137 
0.54849924908 -0.7077124593 -0.4452995045 0.5635978381 -0.7560626834 -0.33275621056 0.55621283476 -0.80884677744 -0.19077256899 
0.51656015229 -0.8561212278 -0.014901421864 0.43384013801 -0.8804891615 0.19110617763 0.30444964294 -0.86121283481 0.40696789562 
0.14200670159 -0.78865001522 0.59821839674 -0.026226288025 -0.67532352823 0.7370551635 -0.17709841687 -0.54571781525 0.81904103491 
-0.30150180693 -0.41872748155 0.8566002315 -0.4004056627 -0.30237418056 0.86501165322 -0.47812888401 -0.19750837448 0.8557939076 
-0.53870128378 -0.10211939768 0.83628497264 -0.58476918497 -0.013809744217 0.81108217295 -0.61761173054 0.069098148578 0.78344189074 
-0.63751958045 0.14715561682 0.75624996462 -0.64424436887 0.21977801974 0.73256181665 -0.63733784659 0.28546835106 0.71575714446 
-0.61624113329 0.34209145462 0.70938022408 -0.58006829792 0.38703525724 0.71674575646 -0.5271831596 0.41709958065 0.74034171573 
-0.45485329455 0.42812732136 0.78090683 -0.35950459421 0.41473686366 0.83591254367 -0.23839318552 0.37100765968 0.89750877743 
-0.093219654069 0.29331113458 0.95146133627 0.066133677072 0.18498249853 0.98051405497 0.22286569674 0.058492622758 0.97309274702 
0.36127687978 -0.069551982248 0.9298610315 0.47393298749 -0.18664279982 0.86055330378 0.56145268065 -0.28783345942 0.77583683016 
0.62801189384 -0.37378594028 0.6825577866 0.67762618886 -0.44759843173 0.58350526312 0.71250829867 -0.51272183215 0.47900756482 
0.7327693248 -0.57196907977 0.36864683426 0.73679368509 -0.62713781553 0.25265238162 0.72205344586 -0.67893769822 0.13297527311 
0.68631973862 -0.72716707625 0.013901784196 0.62903833195 -0.77115631534 -0.098126012048 0.55231137265 -0.81036193667 -0.19561615281 
0.46091120405 -0.84483221526 -0.27169723967 0.36131627643 -0.87525292781 -0.32153205244 0.26034134484 -0.9025928303 -0.34285356475 
0.16409758128 -0.92758552252 -0.3356442793 0.077576349509 -0.95031884354 -0.30145647382 0.0046874097779 -0.97005418498 -0.24284337831 
-0.051543383082 -0.98526501239 -0.16308321503 -0.088847752908 -0.99384789586 -0.06612440323 -0.10572791607 -0.99344799397 0.043389987755 
-0.10159131837 -0.98184786303 0.1601685921 -0.076911931404 -0.95735505461 0.27848851721 -0.033312382869 -0.91911440315 0.39257992698 
0.026487611718 -0.86728126996 0.49711327201 0.098887951016 -0.80302995899 0.58767683135 0.17975023733 -0.72841633346 0.66113500688 
0.26479124892 -0.64614786447 0.71580621102 0.34997206624 -0.55928751637 0.75147656443 0.43182088693 -0.47098609804 0.76922221566 
0.50764810642 -0.38425596284 0.77112953197 0.57565931257 -0.30174939732 0.7599760898 0.63494429116 -0.22564928073 0.73886950758 
0.68536383555 -0.15761760645 0.71093818512 0.72737757931 -0.098787704751 0.67908971904 0.7618429646 -0.049820141028 0.64584305434 
0.78982042845 -0.010962988488 0.61324016803 0.81240296919 0.017850924467 0.58282309508 0.83059049795 0.036932472335 0.55565764388 
0.84521676146 0.046776790545 0.53237257443 0.85691417183 0.047984974774 0.51322075593 0.86610657223 0.041235430283 0.49815564317 
0.8730286649 0.027226347202 0.48690828324 0.87775165996 0.006626336521 0.47907005239 0.88020374403 -0.019966497733 0.47417581968 
0.88016923251 -0.052085844268 0.47179358513 0.87727166962 -0.089455872063 0.47158463147 0.87092939812 -0.13201739701 0.47334278316 
0.86028595478 -0.17993330144 0.47700323169 0.8441209227 -0.23356027731 0.48260694641 0.82075199961 -0.2933514353 0.49021535118 
0.78794149499 -0.35969028323 0.4997710482 0.7428596061 -0.43257064609 0.51092293134 0.6822009606 -0.51115188766 0.522805506 
0.60264479996 -0.59316682281 0.5338280298 0.50188056973 -0.67436646285 0.54161403925 0.38017622245 -0.74851567236 0.54331420754 
0.24191120712 -0.80850321498 0.53647135919 0.095749498585 -0.84867413885 0.52017712326 -0.047443582739 -0.8671776942 0.49573375227 
-0.17797190295 -0.86657744723 0.46622905284 -0.28972013869 -0.85238207772 0.43532405725 -0.38045690122 -0.83083558777 0.40615855574 
-0.45066840343 -0.80735573955 0.38088672853 -0.50211382657 -0.78596828575 0.36074306503 -0.53677807075 -0.76936284962 0.34633814168 
-0.55629177945 -0.75917789915 0.33791770233 -0.55629177945 -0.75917789915 0.33791770233 
FrenetNormal 3 128 double
-0.15955356507 -0.96482608668 0.20893367929 -0.15955356507 -0.96482608668 0.20893367929 -0.145912786 -0.97367853003 0.1750987694 
-0.12333828534 -0.98490429634 0.12145449529 -0.091838236313 -0.99456290195 0.049095543683 -0.051607485237 -0.99786592796 -0.040003215819 
-0.003140712272 -0.98977454021 -0.14260608499 0.052502115022 -0.96572659688 -0.25419612114 0.11345984327 -0.9223878017 -0.36922568604 
0.17692811208 -0.85827289774 -0.481730294 0.23929727889 -0.77406071369 -0.586145736 0.29678285858 -0.6725511084 -0.67793431941 
0.34619838752 -0.5581206048 -0.75408757248 0.38581560902 -0.43598725094 -0.81305684479 0.41604660353 -0.31161814658 -0.85428294752 
0.43955768536 -0.19027141898 -0.87783018196 0.46104354403 -0.076794254671 -0.88404835442 0.48626817095 0.024752698963 -0.87345896859 
0.52047400497 0.11158195224 -0.84655553751 0.56677999521 0.18236944656 -0.8034312802 0.62513143654 0.23704573804 -0.7436531484 
0.69242100782 0.27618798715 -0.66653832874 0.76329199435 0.30057080504 -0.57187631751 0.83164694871 0.31059553201 -0.4603192025 
0.89193681165 0.3057090144 -0.33315270153 0.93935097653 0.28421045946 -0.1919483202 0.96931533834 0.24288174898 -0.037897636703 
0.97578297734 0.17747228672 0.12787168793 0.94941948219 0.084489689506 0.30243038739 0.8782066875 -0.034064152864 0.47706671182 
0.75470416099 -0.16466816853 0.63506379495 0.58723727493 -0.28256471213 0.75849163897 0.39936403289 -0.36380705777 0.84151814832 
0.21322919656 -0.39656241316 0.8929006452 0.037643327371 -0.37890269529 0.92467060481 -0.12913722219 -0.31089341569 0.94163095846 
-0.29050267508 -0.19159917754 0.93749557382 -0.44321118303 -0.023887592337 0.89609889531 -0.57273251775 0.17588142205 0.80065172734 
-0.66030147178 0.37476555623 0.65080929943 -0.69868008529 0.53970577517 0.46964221985 -0.69655649729 0.65741950041 0.2874171995 
-0.66782564545 0.73396313834 0.12372153748 -0.62213014201 0.78278235734 -0.014348081778 -0.56320645062 0.81662340674 -0.12619312794 
-0.49096538047 0.84471077289 -0.21311195495 -0.40339604018 0.87241298602 -0.27598408758 -0.29722110981 0.90175544704 -0.31384187998 
-0.1668264112 0.9319336727 -0.32197605224 -0.0018221561429 0.95737909245 -0.28882858771 0.21380512496 0.95789048688 -0.19165902976 
0.4828751646 0.87568467657 -0.0028147191873 0.73179915763 0.63406523405 0.24986250592 0.84909357736 0.29284923912 0.43963555364 
0.86355236282 -0.0023023361196 0.50425392008 0.8521936739 -0.21902730603 0.4751767896 0.84195734556 -0.38163455836 0.38139597811 
0.82854014471 -0.50706851017 0.23749264115 0.79947795637 -0.59780493527 0.058857936076 0.74765148156 -0.65081757449 -0.13211262943 
0.67621261117 -0.66708515448 -0.31262421718 0.59397664544 -0.65370050126 -0.46890020189 0.50777679791 -0.62046124941 -0.59765421566 
0.41905389071 -0.57663515516 -0.7013456598 0.32456502948 -0.52996761939 -0.78344869904 0.2193531417 -0.48569380675 -0.84615939711 
0.099425263627 -0.44594048014 -0.88952330218 -0.036579385031 -0.41010817325 -0.91130304226 -0.18695378413 -0.37653619961 -0.90734159663 
-0.34697648927 -0.34416483451 -0.87244362716 -0.50954205922 -0.31368482099 -0.80122950705 -0.66570031867 -0.28748781403 -0.68861734113 
-0.80447921719 -0.2685033963 -0.52982932656 -0.91104097565 -0.25791428648 -0.32169016385 -0.96516143879 -0.25291630466 -0.067057735656 
-0.94500371674 -0.24540995475 0.21619881929 -0.84119633581 -0.22468732787 0.49183770627 -0.6696094901 -0.1834082006 0.71971144407 
-0.46341671182 -0.12105747474 0.87783258029 -0.25278536007 -0.041714570775 0.96662270629 -0.05530488644 0.049441645531 0.99724465064 
0.12131867121 0.14757251398 0.98158246375 0.27427895209 0.24822325288 0.92906203946 0.40247344234 0.34720447749 0.84703257259 
0.5053214771 0.44068994074 0.7419181767 0.58283267668 0.52541298811 0.6198768127 0.63571682479 0.59890252829 0.4870111706 
0.66565939167 0.65955149385 0.34912662636 0.67506292036 0.70675799698 0.2116203848 0.66749274457 0.74045024368 0.078656675344 
0.64676882875 0.76127117556 -0.046435755818 0.61709497531 0.7701036673 -0.16166054886 0.58275718178 0.7677699482 -0.26631442644 
0.5478170137 0.7548144258 -0.36076543917 0.516064025 0.73101924478 -0.44641772575 0.49113448799 0.69451431554 -0.5257725556 
0.47626917268 0.6409547897 -0.60195068961 0.4748651115 0.55979809737 -0.67906495717 0.48861117561 0.43036716517 -0.75897511304 
0.51257701529 0.21095414226 -0.83232394731 0.51432336443 -0.14565462153 -0.84513679841 0.43088757637 -0.56674070912 -0.70223989146 
0.28077153966 -0.84441821322 -0.45620743495 0.14496623405 -0.9567089949 -0.25237410734 0.042009549184 -0.99191501624 -0.11974889702 
-0.039969804741 -0.99856385256 -0.03567417931 -0.11179366109 -0.99354011875 0.019498968687 -0.18052605534 -0.9818396384 0.05832038929 
-0.24999012354 -0.96432239888 0.087104817069 -0.32241384272 -0.94031881074 0.10885700798 -0.3985688387 -0.90878793008 0.12348027764 
-0.47866161567 -0.86836887189 0.129686391 -0.56235378965 -0.81728936122 0.12568339314 -0.64845265806 -0.75331987966 0.1096280492 
-0.73449842864 -0.67382358915 0.080460108309 -0.81609844344 -0.57664614585 0.038243340368 -0.88700961626 -0.46150289411 -0.015133386495 
-0.94041482349 -0.33152503006 -0.075571914156 -0.97136041804 -0.19383014861 -0.13743657359 -0.97907821237 -0.057943044997 -0.19506013841 
-0.96738704449 0.06729256441 -0.24420077174 -0.94281559146 0.17584660995 -0.28315495805 -0.91229967566 0.26521923532 -0.31203855373 
-0.88153469029 0.3352473944 -0.33242408811 -0.85461168243 0.38711846991 -0.34608981855 -0.83422147179 0.42252507158 -0.35432626192 
-0.8218290559 0.44241405492 -0.35898023189 -0.8218290559 0.44241405492 -0.35898023189 
FrenetBinormal 3 128 double
0.56915664793 0.083022621218 0.8180268666 0.56915664793 0.083022621218 0.8180268666 0.56592310512 0.063022627549 0.82204573323 
0.56149355684 0.031651905447 0.82687553024 0.55678299994 -0.010412179271 0.83059272661 0.55293057354 -0.061907117105 0.83092435859 
0.55117183613 -0.12070306089 0.82561515136 0.55264478432 -0.18391694421 0.81287040787 0.55820216534 -0.248248201 0.7916963896 
0.56829482599 -0.31053150763 0.76197846001 0.58297658732 -0.36821298155 0.72426341814 0.60194693168 -0.41936562092 0.67955306447 
0.62460555767 -0.46263036883 0.62915899355 0.64998354121 -0.49697243492 0.574925904 0.67655824557 -0.52163848702 0.51977132396 
0.70221026322 -0.53660338324 0.46792900671 0.72424576214 -0.54308808221 0.42488046671 0.73963774098 -0.54391126205 0.39635407293 
0.74532383022 -0.54313637537 0.38664617656 0.73838103885 -0.54501658518 0.39717799957 0.71625637834 -0.5528065455 0.42588933273 
0.67700540901 -0.56809965848 0.46789577281 0.61971698579 -0.59080139124 0.51662808056 0.54437182474 -0.61968279088 0.56537824076 
0.45105402567 -0.65307427228 0.60831263411 0.33933622154 -0.68910863846 0.64029697262 0.20746551256 -0.72559998617 0.65609657914 