# vtk DataFile Version 4.2
vtk output
ASCII
DATASET POLYDATA
POINTS 128 float
0 0 0 -0.25161 0.145155 0.168278 -0.764264 0.412689 0.48554 
-1.23547 0.591221 0.71692 -1.6709 0.674813 0.863308 -2.15013 0.708266 0.984305 
-2.65407 0.676693 1.07305 -3.14389 0.557375 1.11218 -3.60923 0.363795 1.11637 
-4.0486 0.11806 1.10746 -4.46372 -0.16654 1.09719 -4.85752 -0.479702 1.09378 
-5.2344 -0.812874 1.10295 -5.59901 -1.15848 1.1289 -5.955 -1.51122 1.17212 
-6.30569 -1.86685 1.23127 -6.65396 -2.2228 1.30177 -7.00244 -2.57742 1.3776 
-7.35273 -2.93083 1.45052 -7.70586 -3.28391 1.51109 -8.06142 -3.638 1.54719 
-8.41756 -3.99439 1.54541 -8.76676 -4.35303 1.49042 -9.09836 -4.71294 1.36762 
-9.39614 -5.07073 1.17291 -9.6425 -5.42218 0.908205 -9.82734 -5.76484 0.586683 
-9.94481 -6.09717 0.22615 -9.99643 -6.41929 -0.158221 -9.98726 -6.73206 -0.553017 
-9.92347 -7.03646 -0.949167 -9.81169 -7.3335 -1.33996 -9.65778 -7.62413 -1.72105 
-9.46718 -7.90929 -2.08938 -9.24443 -8.18996 -2.44271 -8.99354 -8.46716 -2.7793 
-8.71787 -8.74197 -3.09812 -8.42031 -9.01563 -3.39819 -8.10289 -9.29042 -3.67544 
-7.76713 -9.56911 -3.92448 -7.41458 -9.85271 -4.14479 -7.0468 -10.1422 -4.33505 
-6.66533 -10.4499 -4.45215 -6.27627 -10.7913 -4.42942 -5.94304 -11.1276 -4.23346 
-5.75927 -11.3888 -3.86 -5.72321 -11.5621 -3.37309 -5.77605 -11.6701 -2.87212 
-5.88004 -11.736 -2.38735 -6.01201 -11.7817 -1.90657 -6.16075 -11.8182 -1.42672 
-6.3228 -11.8485 -0.950876 -6.49464 -11.8774 -0.479272 -6.67267 -11.9099 -0.0101917 
-6.8541 -11.9515 0.457081 -7.03673 -12.0075 0.922484 -7.21788 -12.0837 1.38552 
-7.39451 -12.1871 1.84526 -7.5628 -12.3242 2.29933 -7.71832 -12.5014 2.74416 
-7.85648 -12.7216 3.17549 -7.97269 -12.9843 3.58876 -8.06452 -13.2848 3.98222 
-8.13143 -13.6145 4.35668 -8.17408 -13.9656 4.71459 -8.19415 -14.3311 5.05983 
-8.19308 -14.7056 5.3957 -8.17208 -15.0853 5.72494 -8.13188 -15.4674 6.04958 
-8.07279 -15.8498 6.37099 -7.99462 -16.2309 6.68984 -7.89675 -16.6097 7.00603 
-7.77806 -16.9853 7.31897 -7.63702 -17.3568 7.62746 -7.47189 -17.7233 7.93002 
-7.28074 -18.0834 8.22487 -7.06194 -18.4353 8.51025 -6.81426 -18.7769 8.78445 
-6.53729 -19.1054 9.04646 -6.23169 -19.4176 9.29613 -5.89886 -19.7106 9.53409 
-5.54111 -19.9814 9.76198 -5.16124 -20.2273 9.98207 -4.76254 -20.4462 10.1973 
-4.34844 -20.6363 10.4108 -3.92241 -20.7966 10.6253 -3.48798 -20.926 10.8437 
-3.04864 -21.0244 11.0684 -2.6077 -21.0918 11.3013 -2.16814 -21.1292 11.5432 
-1.7325 -21.1382 11.7948 -1.30262 -21.1209 12.0556 -0.879727 -21.0802 12.325 
-0.464092 -21.019 12.6017 -0.055418 -20.941 12.8844 0.347453 -20.8498 13.1713 
0.745985 -20.7489 13.4611 1.14204 -20.6421 13.752 1.53748 -20.5329 14.0429 
1.93409 -20.4247 14.3326 2.33341 -20.321 14.6203 2.73656 -20.2252 14.9053 
3.14429 -20.141 15.1876 3.5567 -20.0721 15.4672 3.97341 -20.0226 15.7446 
4.39321 -19.9969 16.0206 4.81423 -19.9996 16.2962 5.23329 -20.0358 16.5724 
5.64625 -20.1108 16.8504 6.04701 -20.2299 17.131 6.42806 -20.3981 17.4145 
6.77914 -20.6192 17.7003 7.08943 -20.8948 17.9869 7.34794 -21.2209 18.2714 
7.54594 -21.5911 18.5508 7.6813 -21.9936 18.8224 7.75505 -22.4169 19.0849 
7.7741 -22.8514 19.3397 7.74669 -23.289 19.5883 7.68182 -23.7238 19.8313 
7.58725 -24.1526 20.0711 7.46637 -24.5786 20.3172 7.32428 -25.0008 20.5733 
7.17492 -25.3991 20.8187 7.02408 -25.7702 21.051 6.83906 -26.1919 21.3602 
6.62169 -26.6674 21.7627 6.51205 -26.9039 21.9734 
LINES 1 129
128 0 1 2 3 4 5 6 7 8 9 10 11 12 13 14 15 16 17 18 19 20 21 22 23 24 25 26 27 28 29 30 31 32 33 34 35 36 37 38 39 40 41 42 43 44 45 46 47 48 49 50 51 52 53 54 55 56 57 58 59 60 61 62 63 64 65 66 67 68 69 70 71 72 73 74 75 76 77 78 79 80 81 82 83 84 85 86 87 88 89 90 91 92 93 94 95 96 97 98 99 100 101 102 103 104 105 106 107 108 109 110 111 112 113 114 115 116 117 118 119 120 121 122 123 124 125 126 127 

CELL_DATA 1
FIELD FieldData 2
Length 1 1 double
58.783038325 
Tortuosity 1 1 double
0.66326293322 
POINT_DATA 128
SCALARS MaximumInscribedSphereRadius float
LOOKUP_TABLE default
1.64 1.64 1.64 1.58119 1.51736 1.2864 1.05271 1.02678 1.01139 
1.16117 1.32158 1.57671 1.83979 2.01775 2.18683 2.24675 2.29294 2.19461 
2.07486 1.92558 1.77122 1.66854 1.57598 1.5979 1.64495 1.73711 1.84012 
1.96493 2.09547 2.30217 2.53082 2.62319 2.67251 2.53059 2.32263 2.23753 
2.19871 2.24489 2.32592 2.42171 2.52406 2.61793 2.70775 2.69388 2.62327 
2.60017 2.59892 2.79462 3.08242 3.07492 2.91591 2.76711 2.62396 2.62388 
2.70916 2.81798 2.94191 3.06673 3.19217 3.11544 2.88923 2.73038 2.62472 
2.62216 2.70668 2.66208 2.50069 2.34302 2.18894 2.16678 2.28156 2.3697 
2.42819 2.46591 2.47888 2.52786 2.62287 2.69402 2.73246 2.66023 2.42541 
2.23714 2.12224 2.06027 2.08794 2.16501 2.33215 2.50886 2.70438 2.87794 
3.00487 3.05139 2.91305 2.72479 2.41193 2.16539 2.09941 2.05785 2.08912 
2.14067 2.2587 2.37673 2.49473 2.61388 2.73767 2.87885 3.0983 3.31061 
3.48679 3.62094 3.51368 3.42988 3.49986 3.56427 3.58677 3.57854 3.30005 
3.04594 3.05055 3.05956 3.12807 3.18819 3.10717 3.02847 3.10311 3.19155 
3.44078 3.69 
TEXTURE_COORDINATES TCoords 2 float
0 0 0.00787402 0 0.015748 0 0.023622 0 0.0314961 
0 0.0393701 0 0.0472441 0 0.0551181 0 0.0629921 0 
0.0708661 0 0.0787402 0 0.0866142 0 0.0944882 0 0.102362 
0 0.110236 0 0.11811 0 0.125984 0 0.133858 0 
0.141732 0 0.149606 0 0.15748 0 0.165354 0 0.173228 
0 0.181102 0 0.188976 0 0.19685 0 0.204724 0 
0.212598 0 0.220472 0 0.228346 0 0.23622 0 0.244094 
0 0.251969 0 0.259843 0 0.267717 0 0.275591 0 
0.283465 0 0.291339 0 0.299213 0 0.307087 0 0.314961 
0 0.322835 0 0.330709 0 0.338583 0 0.346457 0 
0.354331 0 0.362205 0 0.370079 0 0.377953 0 0.385827 
0 0.393701 0 0.401575 0 0.409449 0 0.417323 0 
0.425197 0 0.433071 0 0.440945 0 0.448819 0 0.456693 
0 0.464567 0 0.472441 0 0.480315 0 0.488189 0 
0.496063 0 0.503937 0 0.511811 0 0.519685 0 0.527559 
0 0.535433 0 0.543307 0 0.551181 0 0.559055 0 
0.566929 0 0.574803 0 0.582677 0 0.590551 0 0.598425 
0 0.606299 0 0.614173 0 0.622047 0 0.629921 0 
0.637795 0 0.645669 0 0.653543 0 0.661417 0 0.669291 
0 0.677165 0 0.685039 0 0.692913 0 0.700787 0 
0.708661 0 0.716535 0 0.724409 0 0.732283 0 0.740157 
0 0.748031 0 0.755906 0 0.76378 0 0.771654 0 
0.779528 0 0.787402 0 0.795276 0 0.80315 0 0.811024 
0 0.818898 0 0.826772 0 0.834646 0 0.84252 0 
0.850394 0 0.858268 0 0.866142 0 0.874016 0 0.88189 
0 0.889764 0 0.897638 0 0.905512 0 0.913386 0 
0.92126 0 0.929134 0 0.937008 0 0.944882 0 0.952756 
0 0.96063 0 0.968504 0 0.976378 0 0.984252 0 
0.992126 0 1 0 
FIELD FieldData 7
Curvature 1 128 double
0 0.051655370128 0.096049800417 0.13618177926 0.16914273552 0.19183711427 0.20214945756 0.20002351855 0.18764073985 
0.16854747383 0.14640648926 0.12410850005 0.10358743225 0.08615724021 0.07318923298 0.066796338901 0.06921220958 0.080792900439 
0.099780777893 0.12398832105 0.15149824146 0.18036882487 0.20832533178 0.23267919196 0.25075194783 0.26056595589 0.26145292259 
0.25428063638 0.24110535985 0.22445142084 0.20672238416 0.18995262694 0.17573232632 0.16553250781 0.16087512688 0.16356580908 
0.17580969622 0.20043808465 0.24117498543 0.30302976904 0.39138593449 0.50743458441 0.63695180489 0.73818583894 0.75684018881 
0.67761505626 0.54276882805 0.40512045289 0.29126710027 0.20489177434 0.14099120614 0.093985385662 0.061300791254 0.045779061859 
0.050452614102 0.066089050139 0.083893445672 0.1003812041 0.11397560297 0.1238079047 0.1294450891 0.13091891417 0.12880402145 
0.12402483051 0.11772579371 0.11105511749 0.10505159681 0.10042844698 0.097600946527 0.096661936497 0.097461082825 0.099683189523 
0.10294777809 0.10684493505 0.11095927143 0.11492639327 0.11839001421 0.12111564788 0.1229171155 0.12378858785 0.12380808629 
0.12310263736 0.12186861579 0.12025612046 0.11827531171 0.11592420425 0.11298074304 0.10926721461 0.10450166857 0.0985231549 
0.091172398571 0.082478510219 0.072468961427 0.061315115267 0.049209334496 0.036393422478 0.023118868847 0.010116051593 0.0081820071172 
0.02142573344 0.036256267553 0.051763470747 0.068024486901 0.085106324519 0.10324325664 0.12245243787 0.14265835266 0.16354492143 
0.18446180992 0.20424462259 0.22131887998 0.23390448631 0.24035750079 0.23961722995 0.23159879028 0.21724148263 0.19826802093 
0.17661096215 0.15405778837 0.1319691039 0.11118443743 0.092047368947 0.074522181505 0.058272389947 0.042869548173 0.027896240948 
0.01310813706 0 
Torsion 1 128 double
0 0 0.032340445148 0.044566524684 0.057407865071 0.070562870739 0.083593277216 0.09556293915 0.10449798303 
0.10677945069 0.096356833426 0.063747387252 -0.0046732459815 -0.12458087796 -0.29599753264 -0.45012194102 -0.4557501229 -0.32125737397 
-0.17343287797 -0.067282625946 0.001130464175 0.045684138882 0.076246611788 0.098756141924 0.11686378576 0.13254115596 0.14705342612 
0.16137802963 0.17652210551 0.19376249164 0.21473052046 0.24105502818 0.27347420236 0.30989275613 0.34350724047 0.36321280737 
0.35929624849 0.33116617867 0.28764161785 0.23974668672 0.19503161834 0.15687670514 0.1265223395 0.10507400938 0.092637230124 
0.088411929673 0.091850474233 0.1041668144 0.13006325345 0.18011239217 0.27951580138 0.49092716397 0.94262016211 1.4255930717 
1.0126308523 0.5195302277 0.29068532565 0.18913586037 0.14231569047 0.12184761823 0.1161218115 0.11988171653 0.13023454487 
0.14538776606 0.16347392631 0.18109887421 0.19424631158 0.1990501326 0.19279747025 0.17664516415 0.15430962312 0.13128343721 
0.1121998356 0.099055241114 0.092918810795 0.09353892058 0.09985121602 0.11022794183 0.12331257593 0.1380877822 0.15259599366 
0.16520469895 0.17448304069 0.17865519914 0.17746417238 0.17075276453 0.15929811699 0.14462443536 0.12808083867 0.11094759827 
0.094575822601 0.079908005571 0.068346438451 0.062889926734 0.069266418406 0.10662643538 0.26949693043 1.5268282355 2.3760302062 
0.29273196807 0.049718955898 -0.023675137939 -0.056995617058 -0.07526259542 -0.086053184809 -0.091990999181 -0.094678950646 -0.095725840609 
-0.095350258433 -0.094365134485 -0.093761942447 -0.09373774914 -0.09455594005 -0.097118780189 -0.10169558639 -0.10807449076 -0.11665054809 
-0.12724991096 -0.13888917824 -0.15015585772 -0.15847570774 -0.16134942826 -0.15549759001 -0.13928418383 -0.11478355478 -0.082683549298 
0 0 
Abscissas 1 128 double
0 0.50291999626 1.0058399925 1.5087613085 2.0116827374 2.5146025417 3.0175223195 3.5204404869 4.0233585726 
4.5262776128 5.0291967145 5.5321163317 6.0350359921 6.5379559458 7.0408759301 7.5437975548 8.0467193858 8.549638768 
9.0525577874 9.5554758083 10.058393658 10.561316124 11.064239493 11.567159964 12.0700798 12.572999574 13.075919335 
13.578837963 14.081756293 14.584676512 15.087597276 15.590516133 16.093434388 16.596353819 17.099273657 17.602196236 
18.105119848 18.608038958 19.110956223 19.613876854 20.116798981 20.619710009 21.122615733 21.625546001 22.128489698 
22.631409044 23.134317188 23.637237828 24.14016431 24.643086348 25.146006105 25.648924103 26.151841127 26.654760136 
27.157680328 27.660600403 28.163520403 28.666442316 29.169365549 29.672290166 30.175215808 30.678125857 31.18102359 
31.683937311 32.186864537 32.689797466 33.192735555 33.695663878 34.198582737 34.701500255 35.20441638 35.707337662 
36.210264682 36.713173685 37.216061202 37.718969441 38.221904175 38.724830562 39.227745513 39.730665874 40.233594184 
40.736521836 41.239448451 41.742370815 42.245285978 42.74820117 43.251116412 43.754037083 44.256968423 44.759895253 
45.262812508 45.765732502 46.268658788 46.771584288 47.274507826 47.777427737 48.280337778 48.783245621 49.286146917 
49.789056343 50.291992426 50.794926352 51.297852465 51.800775993 52.303689116 52.80660425 53.30952844 53.812453256 
54.315381246 54.818309084 55.32123605 55.824160602 56.327069325 56.829976306 57.33287016 57.835769522 58.338717324 
58.841661239 59.344563893 59.847467522 60.350384366 60.853302644 61.356245035 61.859187064 62.362105302 62.865024518 
63.367955131 63.870885743 
ParallelTransportNormals 3 128 double
0.53408984859 0 0.8454277223 0.46537924461 0.027356483746 0.88059048045 0.39666864063 0.054712967493 0.91575323861 
0.30282007164 0.068564518215 0.94552510084 0.20682200334 0.081261287951 0.97483599787 0.11767645617 0.066833749027 0.9864827112 
0.028642832144 0.05196318516 0.99784091307 -0.0045043105132 0.037547902093 0.99871587412 -0.034815961642 0.023155718437 0.99905895089 
-0.028544565834 0.028218380391 0.99913625457 -0.019919032444 0.034532971504 0.99919645561 0.0016310164715 0.05397541426 0.99806763102 
0.024264917007 0.074518760429 0.99683909457 0.044971330691 0.094949650161 0.99403737145 0.065476642529 0.1153688069 0.99107151193 
0.072541688949 0.1224980611 0.98978376878 0.077916746782 0.12795623346 0.98870703318 0.06082591322 0.11079371682 0.99155262805 
0.0404055537 0.090278732651 0.99497952641 -0.01134644347 0.038123051091 0.99593280211 -0.068476842368 -0.019464085519 0.99646145473 
-0.15352590803 -0.11112747568 0.97243709059 -0.24403995377 -0.2094611717 0.94360656043 -0.32556330793 -0.31696770175 0.87762083489 
-0.40511374006 -0.42648712326 0.803481754 -0.4476812252 -0.51423071161 0.72150228705 -0.4813493485 -0.59673428979 0.63763615509 
-0.4897326446 -0.65422638027 0.57085518123 -0.49146641071 -0.70514082493 0.50856734749 -0.48438688927 -0.73982223748 0.46433980525 
-0.47476632479 -0.7698233496 0.42531939804 -0.46411786693 -0.79038998559 0.3987188488 -0.45314475209 -0.80797677111 0.37604107377 
-0.44416315312 -0.81957030667 0.36158668037 -0.4358693379 -0.82909403203 0.34997228854 -0.43149799065 -0.83368143082 0.34461790989 
-0.4286039467 -0.83640968083 0.34162121477 -0.4325270544 -0.83319568657 0.34439703171 -0.43924488591 -0.82754564095 0.34953931748 
-0.46216504541 -0.80895652381 0.36114659347 -0.49228194191 -0.78462014031 0.37562548362 -0.58129683279 -0.70600362169 0.37552811416 
-0.69845785922 -0.60144774714 0.36846505116 -0.81246946616 -0.47025960509 0.25298659214 -0.92475788432 -0.32449975393 0.078189202992 
-0.95777278513 -0.25579152842 -0.05846535735 -0.95432263507 -0.22252630509 -0.17757458554 -0.94618557261 -0.20862794198 -0.24393230678 
-0.93585654998 -0.20378701001 -0.28561937222 -0.9276190235 -0.20113669286 -0.31400929524 -0.92045454615 -0.19961027799 -0.33557707471 
-0.91486489623 -0.19845816776 -0.35139038954 -0.91014763843 -0.1975134075 -0.3640159585 -0.9065136549 -0.19656182246 -0.37354576888 
-0.90352597423 -0.19560616561 -0.38122858846 -0.90153387718 -0.19473848273 -0.3863944337 -0.90018132447 -0.19392731269 -0.38994342162 
-0.89998944425 -0.19400891795 -0.39035396581 -0.90059855338 -0.19470663459 -0.38859864495 -0.9023358391 -0.19828649815 -0.38258384588 
-0.90490735926 -0.20399757612 -0.37341935958 -0.90761032372 -0.21394414018 -0.36072987618 -0.91041712537 -0.22723661602 -0.34525574679 
-0.91232290328 -0.24374139129 -0.32815850006 -0.91346750998 -0.26295986848 -0.30969006837 -0.91336913113 -0.28399515628 -0.2905014376 
-0.91214640101 -0.30667385284 -0.2706613457 -0.90954769144 -0.33066010562 -0.25007623662 -0.90561578958 -0.35591325516 -0.22876927725 
-0.90000099344 -0.38255634129 -0.20641111687 -0.89263892458 -0.41064253548 -0.18296154222 -0.88290403851 -0.44059815807 -0.15803880117 
-0.87052891267 -0.4726338984 -0.13147686412 -0.85474167525 -0.50680959448 -0.1033294489 -0.83488585357 -0.54353696275 -0.073291517699 
-0.81066225762 -0.58186924839 -0.042176460179 -0.78085398198 -0.62225359735 -0.0096841782212 -0.74668785801 -0.66260630389 0.022820397527 
-0.70655106296 -0.70291565729 0.055341816949 -0.66321609546 -0.74135785858 0.087084174545 -0.61518255337 -0.77705694528 0.11768197844 
-0.56578945094 -0.80964879705 0.14727834255 -0.51425309875 -0.83734231484 0.17529600835 -0.46297834434 -0.86164682151 0.2025265568 
-0.41214672468 -0.88021049745 0.22842376422 -0.36284373805 -0.89571734276 0.25369215706 -0.31632793601 -0.90565061289 0.27781402074 
-0.27219057267 -0.91324578926 0.30121962974 -0.2327287428 -0.91624474224 0.32321722568 -0.19611622289 -0.91781818209 0.3441643746 
-0.16555231815 -0.91636549262 0.36288159772 -0.13780773855 -0.91437617988 0.3802364699 -0.1165438437 -0.91115334984 0.39445975326 
-0.097781779881 -0.90803925153 0.40716403249 -0.085265755217 -0.90519661143 0.41607598558 -0.074928720195 -0.90280307089 0.42345915734 
-0.070522615874 -0.90163192181 0.42668118213 -0.068168649245 -0.9010046621 0.42840822904 -0.071931004199 -0.90199844486 0.42567954888 
-0.077917670338 -0.90345425177 0.42140932311 -0.091197055147 -0.9064248702 0.4120849221 -0.10712938087 -0.90956612311 0.4010449796 
-0.1326694651 -0.91332533739 0.38379211754 -0.16136574629 -0.91661482556 0.36453741926 -0.20276082158 -0.91801439516 0.33722843718 
-0.24763143907 -0.9177801564 0.30752277103 -0.30813985294 -0.91019478768 0.26703350466 -0.37176177748 -0.89919537035 0.22375347542 
-0.45115332034 -0.87090414026 0.16633851293 -0.5316945213 -0.83738705273 0.10629025853 -0.61883877179 -0.77385530605 0.031117718844 
-0.70338867096 -0.70569606225 -0.044926630905 -0.77092625636 -0.60719226477 -0.12668782636 -0.83392114641 -0.50808846045 -0.20689308545 
-0.86270734759 -0.40446631487 -0.27538139261 -0.88863195195 -0.30345240336 -0.34154155241 -0.88939163146 -0.2253753409 -0.38722794972 
-0.88937536278 -0.14990677771 -0.43130860028 -0.88112144999 -0.1021306418 -0.4583422745 -0.87293640909 -0.055976261281 -0.48449600862 
-0.86568423165 -0.031788407014 -0.49873103564 -0.85867434708 -0.0085325106573 -0.51244078594 -0.85574019284 -0.00095354668905 -0.51731459272 
-0.85296543735 0.0062493358311 -0.52191488257 -0.86069452869 -0.011330295889 -0.50849131907 -0.86781257405 -0.027520118281 -0.49612899473 
-0.86781257405 -0.027520118281 -0.49612899473 -0.86781257405 -0.027520118281 -0.49612899473 
FrenetTangent 3 128 double
-0.93545580553 0.12727303847 0.32973324003 -0.93545580553 0.12727303847 0.32973324003 -0.94354263762 0.096648993576 0.31683791289 
-0.95377343409 0.048330572061 0.29661488876 -0.96268043612 -0.015423430645 0.27020084326 -0.96664491023 -0.090982032765 0.23941572053 
-0.96290261109 -0.17346962673 0.2067047415 -0.95035366934 -0.25745223335 0.17477485721 -0.92976891655 -0.33794295486 0.14602849407 
-0.90331950066 -0.41124055864 0.12204541226 -0.87375697839 -0.47526120778 0.10332244239 -0.84367116198 -0.52938094316 0.089301665549 
-0.8150501698 -0.57403711279 0.078578711186 -0.78912846136 -0.61032093899 0.069170968703 -0.76640962416 -0.63965757802 0.058774746889 
-0.74674384948 -0.66358843776 0.044988982411 -0.72940197463 -0.6836097517 0.025504250328 -0.7131303273 -0.70102934422 -0.0017305582568 
-0.69618041461 -0.7168417941 -0.038349348753 -0.67635225088 -0.73161093509 -0.085399487041 -0.65109409439 -0.74537775318 -0.14313799393 
-0.61770571619 -0.7576301207 -0.21079907117 -0.57368536589 -0.76737676395 -0.28638785433 -0.5172253886 -0.77335182607 -0.36661267095 
-0.4477468399 -0.77435315226 -0.44710173668 -0.36624315901 -0.76964448857 -0.52298499949 -0.27524372204 -0.75925269784 -0.58972555846 
-0.17833693154 -0.74403058402 -0.64390560558 -0.079423821718 -0.72546376642 -0.68366232905 0.017984756021 -0.70533619147 -0.70864476683 
0.11119890901 -0.6854143426 -0.71961238288 0.1984835167 -0.66724854804 -0.71790226963 0.27895742864 -0.65210670913 -0.704939425 
0.35239299972 -0.6409940046 -0.68186938619 0.41899774192 -0.6347021969 -0.64930271332 0.47918886539 -0.63385185345 -0.60713248897 
0.5333641054 -0.63889506246 -0.55437877867 0.58163333254 -0.65004663851 -0.48902150693 0.6234279769 -0.66709489668 -0.40782588986 
0.65690059892 -0.68897948794 -0.306249683 0.67802404273 -0.71296810678 -0.17877325355 0.67954530001 -0.73334571679 -0.02054859852 
0.65093611838 -0.74025042205 0.168260163 0.58210630019 -0.72117172917 0.3755843345 0.47233433655 -0.66823093165 0.57477621428 
0.33663776172 -0.58689165286 0.73636485874 0.19827408331 -0.49399192673 0.84655736026 0.074789531955 -0.40619187914 0.91072206695 
-0.026906690074 -0.33287987206 0.9425852857 -0.10701797849 -0.27699838576 0.95489216489 -0.16846660806 -0.23822284159 0.95648778336 
-0.2145048141 -0.21515645358 0.95273048928 -0.24785742107 -0.20628547776 0.94657963241 -0.27056351614 -0.21024576888 0.93946373022 
-0.28405504644 -0.22579055874 0.93184298794 -0.28929907703 -0.25165107363 0.9235679624 -0.28694775573 -0.28639631883 0.91413244885 
-0.27748862006 -0.32832621099 0.90288535535 -0.26138265054 -0.37542939128 0.8892310623 -0.2391774749 -0.4254466114 0.87280542869 
-0.21157381578 -0.47603052146 0.85359912319 -0.17943053807 -0.52495436803 0.83200215955 -0.14369935851 -0.57033785187 0.80874299322 
-0.10532295547 -0.61080596555 0.78474400125 -0.065129561542 -0.64553384272 0.76094953717 -0.023750311106 -0.67419606195 0.73817043613 
0.018413213055 -0.69686325753 0.71696761007 0.061181684595 -0.71385838351 0.69761236354 0.10455680365 -0.72562007787 0.68010541639 
0.14866177009 -0.73260203554 0.66422431123 0.19367699906 -0.73519367843 0.64959947293 0.23977087559 -0.73367858786 0.63578743062 
0.28704073538 -0.72821043895 0.62234811227 0.33546443995 -0.71881029798 0.60891326562 0.38485995215 -0.70539724309 0.59522898675 
0.43487227624 -0.68782179642 0.58119470036 0.48497587708 -0.66591257573 0.56688520895 0.53450035525 -0.63953167324 0.55254738182 
0.58267576679 -0.60863066296 0.53857002042 0.62869159015 -0.5732886571 0.52543981588 0.67176214842 -0.53371871195 0.51369246876 
0.71117132105 -0.49028383559 0.50384234903 0.74631614662 -0.44348493408 0.49631977851 0.77673663299 -0.39393266502 0.49142370558 
0.80212580944 -0.34234542701 0.4892788514 0.82234074995 -0.28951947188 0.48983075279 0.83740963874 -0.23631548275 0.49284895207 
0.8475383846 -0.18364193265 0.49795012521 0.8531098048 -0.13242396126 0.5046459704 0.85467662734 -0.083575742056 0.51238945932 
0.85293958756 -0.037965017229 0.52062723463 0.84870693823 0.0036222075669 0.52885103065 0.84284284477 0.040505326497 0.53663326168 
0.83620760575 0.072115006551 0.54365086767 0.82959042962 0.097998137354 0.54970545219 0.82365974434 0.11780500161 0.55471308543 
0.81891920853 0.13126136354 0.55869650468 0.81567363533 0.13812766001 0.56178044658 0.81401424185 0.13818789654 0.5641674568 
0.81380949619 0.13123433403 0.56611982254 0.81470243963 0.11704003549 0.56794503691 0.81611349437 0.095363249985 0.56996895956 
0.81724241892 0.065955086757 0.57250742811 0.81706934691 0.028597592987 0.57582971443 0.81435726626 -0.016861271318 0.58011890196 
0.80765478334 -0.070440786466 0.58543304191 0.79532959578 -0.13190622943 0.59165157037 0.77563574983 -0.20065766709 0.59843603185 
0.74682781064 -0.2755863507 0.60522754776 0.70738396766 -0.3549312734 0.61125421345 0.65631316442 -0.43620677193 0.61561082051 
0.5934828173 -0.51629551847 0.61742779593 0.51989490948 -0.59175507315 0.61606429574 0.43776491628 -0.65930124569 0.61129677367 
0.35028956906 -0.71634178095 0.60344980791 0.26116468688 -0.76139047604 0.59336123005 0.17399177673 -0.7942172407 0.58219054974 
0.091790124181 -0.81567241523 0.57118568272 0.016741101248 -0.82734179548 0.56144927552 -0.049837695727 -0.8311789104 0.55376693924 
-0.10736284442 -0.82920750643 0.54853270725 -0.1557873303 -0.82334482422 0.54574133813 -0.19540569058 -0.81531047111 0.54505545753 
-0.22669379388 -0.80661094597 0.54588341764 -0.25017939341 -0.79852589852 0.54750950723 -0.26635261543 -0.79208940384 0.54922733051 
-0.27560470997 -0.78806523547 0.55045002361 -0.27560470997 -0.78806523547 0.55045002361 
FrenetNormal 3 128 double
-0.25422158885 -0.89041273712 -0.37754011885 -0.25422158885 -0.89041273712 -0.37754011885 -0.21942464487 -0.89890380596 -0.37924236691 
-0.16451650091 -0.90992794476 -0.38074329445 -0.091908550242 -0.92041187393 -0.37999315877 -0.0054912229275 -0.92720131453 -0.37452312185 
0.089444482226 -0.92786982351 -0.36201833548 0.18688337743 -0.92131749371 -0.34095260524 0.281099985 -0.90783409874 -0.31115919977 
0.36745917024 -0.88861134933 -0.27448793788 0.44272783513 -0.8651583173 -0.23556984103 0.5049050206 -0.83893147438 -0.20313764167 
0.55270555023 -0.81101297366 -0.19176686706 0.58402245385 -0.780429241 -0.22326659667 0.59173749661 -0.73865859233 -0.32284705216 
0.56070476817 -0.66446341788 -0.49406328466 0.48854758155 -0.54664569997 -0.68007333374 0.41354414815 -0.41868676209 -0.80850642099 
0.37382396797 -0.31640678327 -0.87186145027 0.37508032558 -0.24230645118 -0.89476384207 0.40839637212 -0.18508958222 -0.89384240769 
0.46405093611 -0.13475248316 -0.87549899884 0.53421973549 -0.085510940207 -0.84100960358 0.61213298223 -0.034903281803 -0.78998415996 
0.69172042825 0.016888240551 -0.72196789158 0.7675425068 0.067876020094 -0.63739418427 0.83504726353 0.11514864434 -0.53799336183 
0.89104575447 0.15548837403 -0.42645143802 0.93373036235 0.18600848725 -0.30585691604 0.96243787073 0.20425077806 -0.17887136341 
0.97693700873 0.2082107346 -0.047353679635 0.97666571176 0.19595441929 0.087897400565 0.95980772831 0.16574749374 0.22648817406 
0.92276957386 0.11658807059 0.36729216621 0.86079396634 0.050121368612 0.50647961057 0.77069318711 -0.027151087009 0.63662770111 
0.6547376769 -0.10314271978 0.74878578632 0.52132765291 -0.1635997986 0.83752766176 0.38004215072 -0.19729745341 0.9036822885 
0.23600613446 -0.19787378728 0.95139217403 0.088379222713 -0.16237545433 0.98276310717 -0.066497027082 -0.089464320322 0.99376771973 
-0.22964048573 0.01925047986 0.973085128 -0.39333599312 0.15451952031 0.90631700545 -0.54016603879 0.29584680333 0.787842192 
-0.65263307347 0.41829374285 0.63174394822 -0.72643038526 0.50578188154 0.46527796388 -0.77086552646 0.55580649969 0.31120005626 
-0.80036258209 0.57210857641 0.17919685819 -0.82831740484 0.55605931529 0.068471269228 -0.86618513248 0.49892124899 -0.028300239717 
-0.92134595121 0.36835138196 -0.12425336053 -0.96850429659 0.076756811048 -0.23687089193 -0.8201669348 -0.46065513591 -0.33929787035 
-0.37858397777 -0.86649553247 -0.32536082122 -0.040593739096 -0.9607318782 -0.2744929991 0.14896857861 -0.95599461797 -0.25275017902 
0.26681752026 -0.92915824317 -0.25587764661 0.35219213206 -0.89483814093 -0.27427249891 0.42221450349 -0.85503431537 -0.30108343126 
0.4848725117 -0.80943835913 -0.33122226703 0.54426896278 -0.75747705789 -0.36055485425 0.60263703522 -0.698656959 -0.38562554041 
0.66105741479 -0.63253521125 -0.40361157178 0.71973808092 -0.55858572955 -0.41226093391 0.77766321239 -0.47646351776 -0.41014929519 
0.83207654856 -0.38690904417 -0.39742925015 0.87964951036 -0.29171673702 -0.37565687039 0.91689467027 -0.19453365366 -0.34851229709 
0.94198857368 -0.099490056698 -0.32056084552 0.95511869103 -0.0099741245086 -0.2960554051 0.95792238377 0.072357784732 -0.27775719192 
0.95251448278 0.14806552776 -0.26606908798 0.94053368982 0.21886180126 -0.25979971182 0.92291307513 0.28664593365 -0.25703222458 
0.89999076236 0.35351780999 -0.255032911 0.87162987118 0.42078788867 -0.2513939546 0.83738348176 0.48925648417 -0.24375601975 
0.79669412531 0.55865826847 -0.23060661259 0.74892033344 0.62832143384 -0.21054811787 0.69349238696 0.69687580496 -0.18284534908 
0.63021315869 0.76221753339 -0.14783709414 0.55931837684 0.82208645778 -0.10647445355 0.4817510109 0.87420528269 -0.060671963965 
0.39932495311 0.91671391028 -0.013235880047 0.31416097712 0.94878320527 0.033366298241 0.22896097202 0.97044199704 0.076283705154 
0.14606700986 0.98270699272 0.11380419628 0.067540799299 0.98714460546 0.14485775212 -0.005063939093 0.9855682804 0.16920260397 
-0.070719374846 0.97975297321 0.18730424848 -0.12891300679 0.97123104692 0.20022909422 -0.17953639191 0.96120011118 0.20943025152 
-0.22312716803 0.95029635541 0.21714304911 -0.26155811162 0.93799011141 0.22751242854 -0.29875200224 0.92157549462 0.24788273212 
-0.34927565667 0.88644006914 0.30369478014 -0.4834307451 0.69612869371 0.53075376257 -0.21425636733 -0.83135757857 0.51277557041 
0.041824765801 -0.98486827434 0.16818195851 0.07198927731 -0.99225666852 0.10121387126 0.056893916252 -0.99475767535 0.084972051997 
0.021053561064 -0.99618314158 0.084710660468 -0.028328804203 -0.99557124229 0.089640283286 -0.088232494036 -0.99155566031 0.095038936735 
-0.15685142453 -0.98273353711 0.098144921699 -0.23254379517 -0.96775261683 0.096841395793 -0.31388662941 -0.94519449982 0.089902955395 
-0.39940245073 -0.91354733091 0.076869737505 -0.48688930553 -0.8715775974 0.057369816803 -0.57401849013 -0.81820865483 0.032208231142 
-0.6579874759 -0.75302370989 0.0027881709229 -0.7358130188 -0.67656695445 -0.028919846423 -0.8048157861 -0.59043771259 -0.060455421615 
-0.86327534437 -0.49687524176 -0.08871681875 -0.91027181878 -0.39882271741 -0.1111110076 -0.94596871868 -0.29907605999 -0.12528644627 
-0.97126414552 -0.19983051545 -0.12928157144 -0.98720352967 -0.10273911328 -0.12195845857 -0.99463439935 -0.0090232526236 -0.10305819975 
-0.99407734893 0.080188133163 -0.073349080704 -0.98597306214 0.1631134738 -0.035371109592 -0.97123781584 0.23798410394 0.0077891813143 
-0.9521469485 0.30150556362 0.050105723885 -0.93172639679 0.35231395287 0.088095403596 -0.91433026087 0.38796741128 0.11610969742 
-0.90321524325 0.40828679711 0.13230312039 -0.90321524325 0.40828679711 0.13230312039 
FrenetBinormal 3 128 double
0.2455479987 -0.43699740418 0.86529731831 0.2455479987 -0.43699740418 0.86529731831 0.24815341268 -0.42735338968 0.86936123913 
0.25149663489 -0.41194088307 0.87581627725 0.25455686261 -0.39064574759 0.88464495906 0.25606144574 -0.3633455546 0.89577482883 
0.25459427754 -0.33009980192 0.90896417675 0.24880214309 -0.29136304385 0.92369100368 0.2377237057 -0.24825754455 0.93907168593 
0.22133151138 -0.20310360107 0.95381407481 0.20134747757 -0.16008707126 0.96634948279 0.18245517428 -0.1262925109 0.97506938782 
0.17380965292 -0.11286872776 0.97828976017 0.19024732553 -0.13578862703 0.97230005857 0.24992603526 -0.21265386632 0.94462442803 
0.35774821624 -0.34371318212 0.86826117166 0.47884655159 -0.48358679271 0.7327003439 0.56606216427 -0.57728611086 0.58848481067 
0.61285273214 -0.62130877165 0.48824884944 0.63392616455 -0.63720720599 0.43829738139 0.63975689405 -0.6404325504 0.42492030418 
0.63489871388 -0.63862224241 0.43481634585 0.62088193336 -0.63546894594 0.45900418688 0.59813970731 -0.63301557171 0.4914470231 