# vtk DataFile Version 4.2
vtk output
ASCII
DATASET POLYDATA
POINTS 128 float
0 0 0 -0.286251 0.010592 0.176955 -0.857582 0.0434614 0.503404 
-1.35766 0.0981526 0.729896 -1.78993 0.164131 0.88193 -2.24497 0.229286 1.04918 
-2.71805 0.28815 1.23724 -3.18231 0.336464 1.43173 -3.63597 0.366641 1.6377 
-4.08305 0.369279 1.8645 -4.51868 0.330801 2.11347 -4.93456 0.236867 2.38234 
-5.31927 0.0763036 2.66343 -5.6617 -0.158046 2.94721 -5.95866 -0.456378 3.22419 
-6.21121 -0.802976 3.48608 -6.42929 -1.183 3.73204 -6.62595 -1.58282 3.96381 
-6.81277 -1.99437 4.18186 -7.00095 -2.41215 4.38548 -7.20321 -2.83339 4.56946 
-7.43139 -3.25652 4.72321 -7.68643 -3.68074 4.8104 -7.9601 -4.10475 4.78755 
-8.21053 -4.52094 4.64545 -8.38492 -4.91995 4.39456 -8.46898 -5.30208 4.07338 
-8.46783 -5.67163 3.73007 -8.39543 -6.02756 3.3827 -8.26879 -6.36681 3.0348 
-8.09416 -6.69159 2.69343 -7.87432 -7.00508 2.36515 -7.632 -7.29358 2.03346 
-7.39241 -7.54051 1.67757 -7.09563 -7.79333 1.36062 -6.65957 -8.1196 1.19395 
-6.28992 -8.40678 1.28356 -6.27436 -8.4866 1.68597 -6.47235 -8.43834 2.24132 
-6.64928 -8.39541 2.75394 -6.78563 -8.36503 3.21247 -6.94136 -8.30754 3.67336 
-7.11775 -8.21589 4.1413 -7.29258 -8.096 4.60054 -7.45625 -7.94601 5.04901 
-7.60295 -7.76201 5.49128 -7.71146 -7.55195 5.93514 -7.75495 -7.33288 6.38935 
-7.72154 -7.15104 6.85745 -7.61084 -7.06297 7.33899 -7.45676 -7.08608 7.82124 
-7.30866 -7.21582 8.28603 -7.1929 -7.43509 8.7248 -7.12261 -7.72105 9.13377 
-7.10342 -8.0602 9.50533 -7.13635 -8.44432 9.82948 -7.21705 -8.86561 10.0936 
-7.33743 -9.31629 10.284 -7.48223 -9.78678 10.3917 -7.63197 -10.2666 10.4119 
-7.76798 -10.7479 10.3529 -7.87266 -11.2245 10.2318 -7.93449 -11.6965 10.0705 
-7.94621 -12.1673 9.89392 -7.9032 -12.6397 9.72774 -7.80307 -13.1152 9.59722 
-7.64942 -13.5886 9.52033 -7.45021 -14.0498 9.50873 -7.21453 -14.4915 9.56009 
-6.9519 -14.9084 9.66156 -6.66708 -15.2979 9.80132 -6.36094 -15.6593 9.9688 
-6.03286 -15.9899 10.1568 -5.68117 -16.285 10.3612 -5.30588 -16.5384 10.5792 
-4.90867 -16.7426 10.8095 -4.49409 -16.8934 11.0506 -4.06929 -16.9904 11.3007 
-3.64016 -17.0375 11.5577 -3.21115 -17.0428 11.819 -2.78435 -17.0146 12.0818 
-2.35947 -16.9613 12.3438 -1.93554 -16.8893 12.6027 -1.51099 -16.8033 12.8562 
-1.08486 -16.7066 13.1031 -0.656903 -16.601 13.3431 -0.227821 -16.4878 13.5774 
0.200594 -16.3674 13.8095 0.626722 -16.2417 14.0429 1.04928 -16.1139 14.2816 
1.46782 -15.9882 14.5284 1.88308 -15.8708 14.7847 2.296 -15.768 15.0509 
2.70781 -15.6871 15.3265 3.11885 -15.6364 15.6104 3.52813 -15.6251 15.9017 
3.93194 -15.6637 16.1987 4.32238 -15.7646 16.4992 4.68859 -15.9362 16.7996 
5.0154 -16.1802 17.0941 5.29094 -16.4915 17.378 5.51005 -16.855 17.649 
5.671 -17.2557 17.9066 5.77724 -17.681 18.153 5.83225 -18.1205 18.3903 
5.83842 -18.5674 18.6198 5.7976 -19.0164 18.8415 5.71077 -19.4636 19.0536 
5.57867 -19.9057 19.2522 5.40173 -20.3408 19.4309 5.18117 -20.7667 19.5816 
4.92021 -21.1812 19.694 4.62432 -21.5825 19.7592 4.30386 -21.9695 19.7726 
3.96989 -22.3428 19.7334 3.63327 -22.7062 19.6493 3.30338 -23.0649 19.5293 
2.98549 -23.4254 19.3834 2.68376 -23.7933 19.2212 2.40097 -24.1698 19.0503 
2.13851 -24.5575 18.8769 1.89423 -24.9645 18.7026 1.6677 -25.3911 18.5303 
1.46641 -25.8064 18.3696 1.28984 -26.2063 18.2223 1.10387 -26.7006 18.0566 
0.903791 -27.3003 17.8695 0.805767 -27.6072 17.7762 
LINES 1 129
128 0 1 2 3 4 5 6 7 8 9 10 11 12 13 14 15 16 17 18 19 20 21 22 23 24 25 26 27 28 29 30 31 32 33 34 35 36 37 38 39 40 41 42 43 44 45 46 47 48 49 50 51 52 53 54 55 56 57 58 59 60 61 62 63 64 65 66 67 68 69 70 71 72 73 74 75 76 77 78 79 80 81 82 83 84 85 86 87 88 89 90 91 92 93 94 95 96 97 98 99 100 101 102 103 104 105 106 107 108 109 110 111 112 113 114 115 116 117 118 119 120 121 122 123 124 125 126 127 

CELL_DATA 1
FIELD FieldData 2
Length 1 1 double
55.40828129 
Tortuosity 1 1 double
0.68695772791 
POINT_DATA 128
SCALARS MaximumInscribedSphereRadius float
LOOKUP_TABLE default
1.24 1.24 1.24 1.24915 1.25889 1.23046 1.20023 1.10107 0.997287 
0.962002 0.933015 0.93 0.93 0.94877 0.97012 1.06653 1.17487 1.28203 
1.38896 1.43045 1.45772 1.41982 1.36566 1.48477 1.65192 1.75034 1.82912 
1.68572 1.47399 1.31129 1.16518 1.08015 1.01805 1.09242 1.22342 1.45284 
1.72593 1.68027 1.61648 1.58277 1.55508 1.55 1.55 1.55 1.55 
1.47219 1.37198 1.38437 1.43299 1.48966 1.54911 1.59696 1.64062 1.72085 
1.81538 1.84923 1.85743 1.86 1.86 1.86 1.86 1.85003 1.83482 
1.76419 1.66191 1.6005 1.56439 1.55 1.55 1.55329 1.55892 1.61271 
1.70376 1.74824 1.75363 1.72099 1.65386 1.66376 1.74907 1.84615 1.95569 
2.02569 2.0501 1.98647 1.81208 1.64554 1.48976 1.43007 1.51474 1.66959 
1.93995 2.08197 1.99214 1.94511 1.98308 2.03266 2.10754 2.16212 2.16829 
2.17497 2.18296 2.15641 2.0332 1.91186 1.79628 1.7234 1.79734 1.85756 
1.86477 1.87821 1.91902 1.97221 2.08737 2.20105 2.30619 2.39525 2.375 
2.35379 2.3246 2.30699 2.41284 2.53452 2.887 3.22624 3.29528 3.33203 
2.90601 2.48 
TEXTURE_COORDINATES TCoords 2 float
0 0 0.00787402 0 0.015748 0 0.023622 0 0.0314961 
0 0.0393701 0 0.0472441 0 0.0551181 0 0.0629921 0 
0.0708661 0 0.0787402 0 0.0866142 0 0.0944882 0 0.102362 
0 0.110236 0 0.11811 0 0.125984 0 0.133858 0 
0.141732 0 0.149606 0 0.15748 0 0.165354 0 0.173228 
0 0.181102 0 0.188976 0 0.19685 0 0.204724 0 
0.212598 0 0.220472 0 0.228346 0 0.23622 0 0.244094 
0 0.251969 0 0.259843 0 0.267717 0 0.275591 0 
0.283465 0 0.291339 0 0.299213 0 0.307087 0 0.314961 
0 0.322835 0 0.330709 0 0.338583 0 0.346457 0 
0.354331 0 0.362205 0 0.370079 0 0.377953 0 0.385827 
0 0.393701 0 0.401575 0 0.409449 0 0.417323 0 
0.425197 0 0.433071 0 0.440945 0 0.448819 0 0.456693 
0 0.464567 0 0.472441 0 0.480315 0 0.488189 0 
0.496063 0 0.503937 0 0.511811 0 0.519685 0 0.527559 
0 0.535433 0 0.543307 0 0.551181 0 0.559055 0 
0.566929 0 0.574803 0 0.582677 0 0.590551 0 0.598425 
0 0.606299 0 0.614173 0 0.622047 0 0.629921 0 
0.637795 0 0.645669 0 0.653543 0 0.661417 0 0.669291 
0 0.677165 0 0.685039 0 0.692913 0 0.700787 0 
0.708661 0 0.716535 0 0.724409 0 0.732283 0 0.740157 
0 0.748031 0 0.755906 0 0.76378 0 0.771654 0 
0.779528 0 0.787402 0 0.795276 0 0.80315 0 0.811024 
0 0.818898 0 0.826772 0 0.834646 0 0.84252 0 
0.850394 0 0.858268 0 0.866142 0 0.874016 0 0.88189 
0 0.889764 0 0.897638 0 0.905512 0 0.913386 0 
0.92126 0 0.929134 0 0.937008 0 0.944882 0 0.952756 
0 0.96063 0 0.968504 0 0.976378 0 0.984252 0 
0.992126 0 1 0 
FIELD FieldData 7
Curvature 1 128 double
0 0.0093405886824 0.019123554335 0.031226519063 0.046299546709 0.064564055636 0.085755665514 0.10907021843 0.13311555816 
0.15589403796 0.17500951818 0.18819844238 0.19415644117 0.19328861885 0.18792327945 0.18184797113 0.17924700985 0.18347571018 
0.19603390784 0.2163313824 0.2420829926 0.26960367483 0.29405566277 0.31007302041 0.31345510584 0.30298390597 0.28122436996 
0.25359715838 0.22700874293 0.21029919144 0.21736870158 0.27184180213 0.41284488596 0.71459792056 1.2939036662 2.0674079162 
2.2375049428 1.5395658371 0.85107347231 0.45926733806 0.2547164525 0.14112040504 0.072115560687 0.035322325315 0.04835591542 
0.083303640022 0.12241003564 0.16413160972 0.20800845302 0.2528477741 0.29628574241 0.33476141397 0.36396011933 0.37967565285 
0.37918961985 0.36230113472 0.33164956544 0.29181099479 0.24825969973 0.20617474354 0.17058563623 0.14653395224 0.13798633817 
0.14467206312 0.16144505796 0.18195269827 0.20138068277 0.21673494168 0.22665144985 0.23110133161 0.2309654539 0.22740970864 
0.22142375444 0.21357683598 0.20395930918 0.19256715649 0.17930387688 0.16435541327 0.14811709703 0.1310528381 0.11370203695 
0.096508669672 0.079693732938 0.063295450563 0.047250744424 0.031442497793 0.016504504478 0.01110443445 0.025231726784 0.044290692136 
0.065667253164 0.089113864634 0.11464068549 0.14205568829 0.17078314792 0.19975215872 0.22737612031 0.25161301137 0.27033355568 
0.28213224585 0.28650610948 0.28439353351 0.27748444575 0.26775368082 0.25686414367 0.2459065402 0.23527513417 0.2249244862 
0.21439797342 0.20309991673 0.19047217684 0.17619802065 0.1602157173 0.14296988391 0.12525398262 0.10808859448 0.092583491957 
0.079752748934 0.070108282399 0.063444649157 0.058692873832 0.054389983749 0.049246464061 0.042407400699 0.03361902375 0.023024492326 
0.011125825058 0 
Torsion 1 128 double
0 0 0.089683058786 0.084059473093 0.065272386917 0.04140322741 0.017273970598 -0.0052608126874 -0.026470898037 
-0.047662794492 -0.070857855008 -0.098651157918 -0.13383264554 -0.17844484648 -0.23089110104 -0.28122383045 -0.30853911993 -0.29119792469 
-0.22814666765 -0.14054742444 -0.051882044993 0.025313034418 0.088602394126 0.14101898544 0.18874011713 0.24027685754 0.30775832163 
0.41028211577 0.57570400975 0.82097762567 1.0638512714 1.0955376156 0.90027942896 0.6464348367 0.41174778106 0.23942445373 
0.15038964354 0.089511421276 0.00048885063356 -0.1135421032 -0.25111426166 -0.47672902251 -1.1067232538 -3.2515067593 -1.5867481404 
-0.6419505514 -0.41705953464 -0.33767102733 -0.29657280092 -0.26414065863 -0.22957528679 -0.18826495169 -0.13887305457 -0.082193309633 
-0.019634692447 0.047863664994 0.12118786175 0.20454539574 0.30635437367 0.43881209041 0.60589487293 0.7636338522 0.79742566665 
0.66756209374 0.48440310247 0.33160642735 0.22057400801 0.14014314112 0.079751169733 0.033273003482 -0.0020641716101 -0.027469756062 
-0.043642971643 -0.051722087085 -0.053919511523 -0.052315636264 -0.048962545558 -0.045059839899 -0.041137173984 -0.036724774608 -0.030218468115 
-0.019775561446 -0.0011392098843 0.033697280116 0.10660433026 0.30799875314 1.2598760419 2.9851395856 0.61709093985 0.21732162362 
0.10763113216 0.060943878955 0.034009648193 0.014624607686 -0.0015744036842 -0.015979225501 -0.028824113303 -0.040231517024 -0.049645272714 
-0.0563993799 -0.05916368415 -0.056514004934 -0.047497049284 -0.031022477248 -0.0073753162136 0.021760945112 0.054090658582 0.08681047288 
0.11733166349 0.14522394516 0.17078775829 0.19502489161 0.22124545734 0.2528700601 0.29314430582 0.34372281078 0.4017786921 
0.45462653714 0.47944781509 0.4579798184 0.39645806586 0.3172035137 0.24075781686 0.17584166445 0.12265455821 0.081418507366 
0 0 
Abscissas 1 128 double
0 0.50184967059 1.0036993412 1.5055503029 2.0074013489 2.5092484163 3.0110952972 3.5129452199 4.0147953464 
4.5166453608 5.0184953649 5.5203467672 6.022198332 6.5240486916 7.0258988856 7.5277490061 8.0295991148 8.531446215 
9.0332927545 9.5351425499 10.036993053 10.538843044 11.040692908 11.542541627 12.044390028 12.546240203 13.048090883 
13.549940364 14.051789477 14.553639547 15.055489941 15.557342453 16.059195761 16.561042641 17.062886855 17.564737973 
18.066592157 18.568438885 19.070285189 19.572134065 20.073983455 20.575834788 21.077686558 21.579536554 22.081386097 
22.583236182 23.085086422 23.586937656 24.088789209 24.590638814 25.092487745 25.594335865 26.096183689 26.598033656 
27.099884461 27.601728843 28.103570512 28.605416511 29.10726448 29.609119974 30.110979135 30.612821486 31.114655013 
31.616491076 32.118328588 32.620180009 33.122040042 33.623885574 34.125721493 34.627575761 35.129443119 35.631288248 
36.133116185 36.634957633 37.136810421 37.63867114 38.140539056 38.642393843 39.144235781 39.646088295 40.147952019 
40.64980069 41.151632003 41.653478477 42.155344021 42.657199823 43.159042245 43.660884567 44.162726737 44.664573074 
45.166426272 45.668275471 46.170117449 46.67196389 47.173819194 47.675675223 48.17753283 48.67939134 49.181252001 
49.683106452 50.184944899 50.686787557 51.188642 51.690498524 52.192361467 52.694222848 53.196078863 53.697926155 
54.199739711 54.701558672 55.203401355 55.705249046 56.20712181 56.708991634 57.210844529 57.712697223 58.214548556 
58.716400003 59.218252402 59.720102085 60.221922809 60.72374558 61.225598194 61.727451114 62.229310289 62.731167942 
63.233003762 63.734839582 
ParallelTransportNormals 3 128 double
0.50455788295 0 0.86337786788 0.44078442082 0.0059394888173 0.89458724914 0.37701095869 0.011878977635 0.9257966304 
0.36707267167 0.013040227442 0.93007537462 0.36064917276 0.013889515828 0.93259587279 0.38034173465 0.011773596332 0.92448745622 
0.40125777262 0.0095187638135 0.91588109997 0.43767684892 0.0087538935593 0.89810495527 0.47513416822 0.0080888065143 0.87971470715 
0.51793704704 0.015458354249 0.85370929895 0.56123146281 0.023566705806 0.82700365863 0.59536636337 0.041477527648 0.8010518015 
0.62843777793 0.06052648723 0.77518746405 0.64459955797 0.077188530626 0.76019271215 0.65843756811 0.093522557235 0.7466916895 
0.66073990824 0.096508916688 0.74438400983 0.66120958659 0.09737474396 0.74385460674 0.65138365589 0.076417011304 0.75428517802 
0.63963943539 0.051393087681 0.76675782443 0.6025824717 -0.0193412949 0.79217236186 0.5600246247 -0.10000932628 0.82039938909 
0.47607602962 -0.24252291484 0.82557790811 0.38180021407 -0.40046731183 0.82500569691 0.32561347821 -0.51371108028 0.78475371778 
0.2799847338 -0.61456418825 0.73350282099 0.26955619739 -0.64093420248 0.71867855786 0.26917904087 -0.6460356529 0.71425587908 
0.26708105797 -0.64086170849 0.71959992338 0.26445396747 -0.63252835789 0.72794697106 0.26251303678 -0.62843389914 0.73221602415 
0.26080442725 -0.62577465165 0.73510434283 0.26010920482 -0.62481041858 0.73617579787 0.25979435766 -0.62448240989 0.73656529236 
0.097487311985 -0.49263871621 0.81051096867 -0.13205185618 -0.30621166159 0.9149848943 -0.46658201211 0.032209590345 0.49768470687 
-0.84770679766 0.43808533034 -0.1511769895 -0.85474336489 0.45838677175 -0.23650803914 -0.84049214093 0.45674679734 -0.28977092373 
-0.82756514777 0.45264295375 -0.32970036026 -0.81490338716 0.44804561737 -0.36695921654 -0.80446165581 0.44183097904 -0.39593615102 
-0.79451945548 0.43525242998 -0.42304956197 -0.79448607395 0.43631681582 -0.422308975 -0.79697424445 0.43932614164 -0.41448022686 
-0.80718221719 0.47653457004 -0.32801367662 -0.81961169322 0.52358436691 -0.21891777271 -0.79719347498 0.5664264606 -0.038214792893 
-0.76356330127 0.60791476081 0.16552716735 -0.73097551899 0.60095299773 0.30172562215 -0.69874791222 0.57725037752 0.41458589951 
-0.68572359226 0.55561091417 0.46864426632 -0.67966353991 0.53471967569 0.50137752118 -0.67886275149 0.51256094611 0.52495140736 
-0.68011873828 0.48990653038 0.54494327852 -0.68997924857 0.443485745 0.56880516354 -0.70347577194 0.38702200596 0.59430240012 
-0.7284107905 0.29842881902 0.60806562789 -0.75854832288 0.19522235525 0.61649193485 -0.78491221319 0.084636460931 0.60324982531 
-0.80943710156 -0.029545637482 0.57944808685 -0.81975541989 -0.12537592757 0.55215286904 -0.82261522078 -0.21157143024 0.52302355779 
-0.8180057827 -0.27201964426 0.50481248309 -0.80912956873 -0.3177598123 0.49283841174 -0.80189259305 -0.34454660383 0.48787959118 
-0.79567069596 -0.3595967451 0.48726488022 -0.78848667451 -0.37322476813 0.48866804918 -0.78066488586 -0.385910106 0.4914088182 
-0.76588859114 -0.40484540973 0.49863661719 -0.74615061297 -0.42823974359 0.50906568196 -0.71672576369 -0.45582549658 0.52560113572 
-0.6798098955 -0.48665254384 0.54685876186 -0.63559538619 -0.5148098446 0.57247671012 -0.58525448963 -0.54072619383 0.60175465774 
-0.53671125135 -0.55888319061 0.63021223626 -0.48979915796 -0.5699995678 0.65792543477 -0.45001986996 -0.57588768751 0.68169507567 
-0.41722129109 -0.57665903441 0.70160524935 -0.38913411709 -0.57573854491 0.71871260016 -0.36604106396 -0.57302469743 0.73284893988 
-0.34442815166 -0.56973058645 0.74590710402 -0.32452189532 -0.56576741063 0.75772209269 -0.30622626747 -0.56178201775 0.76835641834 
-0.28995672768 -0.55776867695 0.77750553046 -0.27847625404 -0.55486718848 0.78393304461 -0.27357326898 -0.55349276097 0.78662261089 
-0.27521966267 -0.55402658537 0.78561295214 -0.28670536661 -0.55742722862 0.77904584672 -0.30334311774 -0.56209041703 0.76906836603 
-0.32846232462 -0.56883204542 0.75347662252 -0.35782600732 -0.57545087278 0.73458312965 -0.39485809961 -0.58184783797 0.70972443225 
-0.43790161579 -0.58591836587 0.67996682135 -0.49288312524 -0.58536885813 0.64048053424 -0.55527208961 -0.57722299502 0.59397501813 
-0.63381791293 -0.55250825045 0.53215942669 -0.71306713229 -0.51542404621 0.4662346784 -0.79399292675 -0.44885669642 0.39051557589 
-0.86643910946 -0.37576183791 0.31748627642 -0.91702981038 -0.285842878 0.25138971664 -0.95949731213 -0.19639613777 0.18927548837 
-0.97922974019 -0.10827103808 0.13830694276 -0.99386162904 -0.021373125005 0.089428693565 -0.99276394038 0.061740261368 0.046996719566 
-0.98781732825 0.14435299177 0.0056849365487 -0.96963756542 0.22524439517 -0.031775469282 -0.94803651901 0.30578027399 -0.067774286956 
-0.91320593877 0.38494139843 -0.098121386629 -0.87636785987 0.46230722473 -0.12575743906 -0.83072072944 0.53179515097 -0.14149721714 
-0.78675563754 0.59681004564 -0.15454308102 -0.75121145357 0.6394312876 -0.15410221267 -0.71981281174 0.67697669913 -0.15341470871 
-0.71229378772 0.6852837418 -0.15130650657 -0.70768322993 0.69023107873 -0.15039643497 -0.72286119697 0.67231976255 -0.15763816372 
-0.73894411798 0.65278883802 -0.16566944254 -0.76257049287 0.61975729237 -0.18028219922 -0.78604635668 0.58629684617 -0.19500200169 
-0.8079178989 0.54826468048 -0.21086282245 -0.82942924542 0.51039886255 -0.22655579784 -0.84568863576 0.47495853476 -0.23980144666 
-0.86174992078 0.43965118681 -0.25293157266 -0.87376756285 0.40705816788 -0.26370369504 -0.885001501 0.37659063053 -0.27377333731 
-0.885001501 0.37659063053 -0.27377333731 -0.885001501 0.37659063053 -0.27377333731 
FrenetTangent 3 128 double
-0.90029948108 0.066898464871 0.43009933709 -0.90029948108 0.066898464871 0.43009933709 -0.90012575911 0.059973463444 0.43148209866 
-0.89949805843 0.047851893509 0.43429648763 -0.89794071948 0.029439085645 0.4391307374 -0.89479755947 0.0034947571145 0.44645841266 
-0.88921462971 -0.031164533814 0.45642755629 -0.88014214787 -0.075426901814 0.46867961554 -0.86640149141 -0.12961100094 0.4822338065 
-0.84686817537 -0.19318516143 0.4954732959 -0.82078709583 -0.26456466224 0.50627471082 -0.78815212316 -0.34112520935 0.51229856755 
-0.74998189151 -0.41954577382 0.5113790239 -0.70828692738 -0.49644698435 0.50186653628 -0.66564967826 -0.56908808328 0.48275175743 
-0.62454803547 -0.63581508026 0.45351839556 -0.58669453816 -0.69608513652 0.41382967705 -0.55259657846 -0.75012415695 0.36325028648 
-0.52138336352 -0.79840791112 0.30117137264 -0.49087579727 -0.84113571324 0.22700586679 -0.4578556535 -0.87782692579 0.14067014221 
-0.41857274247 -0.90715105437 0.043287686734 -0.36954290973 -0.92713620873 -0.062100630684 -0.30856699155 -0.93585061091 -0.17020589232 
-0.23563249949 -0.93241852359 -0.27399456572 -0.15314278189 -0.91788759397 -0.36610060529 -0.065199373379 -0.89536651149 -0.44053132898 
0.023726438016 -0.86931287315 -0.49369239889 0.11000049097 -0.84447130779 -0.52418327167 0.19141742898 -0.82507248905 -0.53161523275 
0.26715153799 -0.81453324201 -0.51494237872 0.33725178852 -0.8154392917 -0.47044658856 0.401607199 -0.82912949279 -0.38891636877 
0.45731965014 -0.85304673961 -0.25133642323 0.49129270267 -0.87060443411 -0.026065295103 0.46703712242 -0.82927920998 0.30687508561 
0.34626844544 -0.66277170599 0.66395167703 0.17623904317 -0.42182075276 0.88938577243 0.036598792732 -0.21674350411 0.97554230139 
-0.054941691219 -0.074808021412 0.99568326816 -0.10948114133 0.01925267734 0.99380240194 -0.13816052941 0.081002570574 0.98709181522 
-0.14813910835 0.11953845876 0.98171551962 -0.14396923058 0.13913827029 0.97975170446 -0.12897566992 0.14115815207 0.98154961804 
-0.10611181184 0.12531841364 0.98642565791 -0.078436339007 0.090610001664 0.99279281238 -0.049299985406 0.036043442242 0.99813344885 
-0.022296576237 -0.038645941847 0.99900418111 -0.00097734090595 -0.13235030172 0.99120252342 0.01165678387 -0.24207604416 0.97018725421 
0.013773476448 -0.3627173017 0.93179742991 0.0052904428387 -0.4873138973 0.87321084322 -0.011829565005 -0.60790130451 0.79392447082 
-0.033795544304 -0.71687633002 0.69638077848 -0.055734913369 -0.80849189423 0.58586216501 -0.072745516874 -0.87990118021 0.46955511161 
-0.080842346693 -0.93131428971 0.35513125568 -0.077465931707 -0.96529360986 0.24941386526 -0.061498140462 -0.98558559364 0.15760398577 
-0.032958092967 -0.99599352562 0.083130385677 0.0073782697265 -0.99958434962 0.027869142949 0.058268717105 -0.99827288416 -0.0074836724497 
0.11814013375 -0.99272756938 -0.023127511545 0.18511246376 -0.98251286871 -0.020045911583 0.25698238883 -0.96641608621 -1.1748791696e-05 
0.33127101945 -0.94290903738 0.034381083491 0.4054064344 -0.91064705112 0.079797062807 0.47699922928 -0.8688699156 0.13242660242 
0.54411827204 -0.81758079232 0.18840635357 0.60543660444 -0.75748474153 0.24426089402 0.66019672921 -0.68978719024 0.29721021334 
0.70805416724 -0.61599432249 0.34526843313 0.74890697876 -0.53779038853 0.38719482843 0.78278526282 -0.45700618741 0.42236545429 
0.80985104765 -0.37558596137 0.45064006284 0.83044119484 -0.29552028316 0.47226600995 0.84511296788 -0.21872800425 0.48779312385 
0.85464312043 -0.14688519481 0.49800589981 0.85996333994 -0.08131646563 0.5038359717 0.86205758859 -0.022938235989 0.50629097493 
0.86185542704 0.027738048757 0.50639492842 0.86015804631 0.070514421143 0.5051295396 0.85759686536 0.10537834428 0.50341138354 
0.85463407654 0.13239118324 0.50206888952 0.85158660787 0.15157884919 0.50182078651 0.84864997912 0.16285750272 0.50326001903 
0.84591279245 0.16599153384 0.50683168633 0.84334652289 0.16056551243 0.51282098099 0.84076434045 0.14601437187 0.52133974243 
0.83776138761 0.12165515604 0.53231182631 0.83363410168 0.086767467869 0.5454590645 0.82729897079 0.040715787637 0.5602844256 
0.81724009835 -0.016905766499 0.57604931795 0.80152105035 -0.086036059788 0.59174471038 0.77790126839 -0.16587005161 0.60609961444 
0.74409894725 -0.25461360246 0.61764769096 0.69820496491 -0.34935290342 0.62486988714 0.63916698008 -0.44615073372 0.62643043858 
0.56716455541 -0.54051364139 0.62142527351 0.48370446429 -0.62808272518 0.60954251825 0.3913510806 -0.7053577042 0.59102862946 
0.29318742006 -0.77016108314 0.56647422072 0.19228013367 -0.82167541139 0.53654251324 0.091329855385 -0.86019577393 0.5017191326 
-0.0074375381091 -0.88673806204 0.46221238879 -0.10218952839 -0.90267605512 0.41801105225 -0.19133074092 -0.90950800988 0.36903621442 
-0.2733767245 -0.90874539801 0.31535213348 -0.34690722168 -0.90189255781 0.25738141681 -0.41061531094 -0.89049204395 0.19600761743 
-0.46345065408 -0.87614682662 0.13259045757 -0.50478239472 -0.86049407136 0.068881689366 -0.53450168362 -0.84513999649 0.0068070948258 
-0.55305224832 -0.83153533404 -0.051789949511 -0.5613536884 -0.82084376941 -0.10534487524 -0.56067508042 -0.81383462198 -0.15269794455 
-0.55249185993 -0.81082914025 -0.19315498969 -0.53837311937 -0.81170516597 -0.22647098681 -0.51991831343 -0.81595007874 -0.25280509561 
-0.49872331256 -0.82275708029 -0.27266434375 -0.47636267796 -0.83115056674 -0.28682282764 -0.45436690985 -0.84010900855 -0.29625591132 
-0.43418873174 -0.84868036073 -0.3020294531 -0.41714023107 -0.85606382534 -0.3052028089 -0.4043241082 -0.86165204584 -0.30672099281 
-0.39656486417 -0.86503872695 -0.30731792883 -0.39656486417 -0.86503872695 -0.30731792883 
FrenetNormal 3 128 double
0.010436833461 -0.98451660995 0.17498033385 0.010436833461 -0.98451660995 0.17498033385 0.033147474825 -0.97817731654 0.2051106587 
0.063129947465 -0.96932061846 0.23755451661 0.096778544765 -0.96013184546 0.26226084839 0.13292456975 -0.95253811092 0.27386530633 
0.17210615185 -0.94717538007 0.2706257044 0.21520033857 -0.94341583066 0.25230018773 0.26262296948 -0.9396499694 0.21928773542 
0.31359949796 -0.93386741479 0.17189242702 0.36594215655 -0.92406796536 0.11038448017 0.41591047174 -0.90874110455 0.03475750848 
0.45844596536 -0.88699643597 -0.055359004834 0.48755818402 -0.85815605442 -0.16079553309 0.49700337857 -0.82062042093 -0.28208113449 
0.48203580244 -0.77071767506 -0.41669623291 0.44323765272 -0.7037044017 -0.55528415991 0.39146831935 -0.61837545112 -0.68144284896 
0.34643111472 -0.52059423266 -0.7803634587 0.32607228154 -0.41899349417 -0.84742039098 0.33834514919 -0.31837763677 -0.88552709751 
0.38137057823 -0.21882805477 -0.89814852029 0.44804287444 -0.11923637133 -0.88602498295 0.52944663859 -0.020321803443 -0.84809980615 
0.61725715767 0.07417520413 -0.78325707172 0.70544775684 0.15788832303 -0.6909520532 0.79082532136 0.2228705506 -0.57002107748 
0.87184666187 0.25964485764 -0.41529260298 0.94294473063 0.25540905775 -0.21359177932 0.97975844464 0.19295358118 0.05331327857 
0.92436668795 0.065579927178 0.37582642185 0.73921055895 -0.080063369979 0.66869844199 0.49342316619 -0.16186145478 0.85459607331 
0.26256836627 -0.14050274103 0.95462915983 0.045870545015 -0.0040222440151 0.99893929478 -0.1818169912 0.24957118113 0.95113448432 
-0.39090698779 0.54143349072 0.74433964157 -0.51069754623 0.73322940889 0.44895729219 -0.54406713358 0.81451677787 0.20137867991 
-0.52608614702 0.8497184785 0.034811969427 -0.46733375161 0.88141866065 -0.068558801479 -0.34805478782 0.92910855429 -0.12496062989 
-0.075824687886 0.98837329084 -0.13179095058 0.68469993727 0.72881935141 -0.0028894471419 0.93387617143 -0.31562192488 0.16810144844 
0.7123972257 -0.68250264394 0.16334115777 0.54605388567 -0.82927985418 0.11882793186 0.40787865992 -0.91149303364 0.053060799189 
0.28262045976 -0.95873783483 -0.030780509798 0.16704242817 -0.97729789932 -0.1303289806 0.062881534195 -0.96815531667 -0.24232456634 
-0.025967164681 -0.93170128596 -0.36229603932 -0.09482498882 -0.86953264957 -0.48468669554 -0.13946884473 -0.78521584987 -0.6033112882 
-0.15674246278 -0.6843545865 -0.71210294221 -0.14453315651 -0.57406065535 -0.80595566296 -0.10123850772 -0.46185605055 -0.88115818848 
-0.024346537016 -0.35434604321 -0.93479737259 0.091157876091 -0.25597543433 -0.96237561204 0.25330703943 -0.16814478114 -0.95266094512 
0.4672189231 -0.088881450195 -0.8796627568 0.71107974547 -0.014350456085 -0.70296490666 0.90882554786 0.05614667696 -0.41338078598 
0.98853479037 0.11978284599 -0.091929527498 0.96939553306 0.17921770567 0.16778949446 0.90725414721 0.24124628483 0.34451435736 
0.83457694736 0.30982014346 0.45551377326 0.76259960115 0.38504546304 0.51979018818 0.69403660292 0.46481185228 0.54978462672 
0.62896347783 0.54610149339 0.55333362673 0.56677955719 0.625802259 0.53584742807 0.50652954731 0.70106753061 0.50192841643 
0.44730042815 0.76957774316 0.45571089982 0.38819988846 0.82957539644 0.40137950648 0.32893633011 0.88002566831 0.34257220238 
0.26987330842 0.92059191748 0.28227454521 0.21188594341 0.95154804686 0.22284672201 0.15631760726 0.97369428262 0.16578374361 
0.10435487339 0.98817141661 0.11237131213 0.057149669884 0.99635927448 0.063262243068 0.014957121619 0.99969157772 0.019825084048 
-0.022475038761 0.99961118641 -0.016502988535 -0.056520736629 0.99747509711 -0.042998104406 -0.090200810469 0.99443131221 -0.054499349369 
-0.12983262901 0.99071906132 -0.040239656769 -0.19266022237 0.98078550446 0.030689297038 -0.34617876994 0.8903710016 0.29563446813 
-0.47792049057 -0.18583236067 0.85852101804 -0.20251511831 -0.78898719512 0.58007485103 -0.12409717882 -0.88533276205 0.44809127491 
-0.10661553484 -0.91965734223 0.37797288344 -0.11640699917 -0.93779802811 0.32708449829 -0.14456448563 -0.94834854948 0.28237588105 
-0.18794985484 -0.95273557065 0.23868343991 -0.24486753141 -0.95004244929 0.19354388808 -0.31367011414 -0.93827045856 0.14580674224 
-0.39195689725 -0.91506720035 0.094983206613 -0.47640375384 -0.87825617338 0.041298392909 -0.56293123012 -0.82638205866 -0.014181794044 
-0.64683529592 -0.75939526368 -0.070163619107 -0.72369093062 -0.67869915553 -0.12505556052 -0.78946966547 -0.58734744301 -0.17821511859 
-0.84143592001 -0.48916958573 -0.22956199362 -0.87784233297 -0.38841101561 -0.28023154961 -0.89782466381 -0.28907531152 -0.33218419188 
-0.90116299234 -0.1943979695 -0.38744637136 -0.88794852056 -0.10666168534 -0.44740441406 -0.85826816717 -0.027385151434 -0.51247029836 
-0.81241649667 0.042599842413 -0.58151929406 -0.7509274674 0.10267098089 -0.65235466458 -0.67421397633 0.15179768398 -0.72276758177 
-0.58318950102 0.18892368064 -0.79006192719 -0.4782867175 0.21235911203 -0.85214166862 -0.3589149129 0.21968618382 -0.90714831529 
-0.22321632531 0.20777631201 -0.95236730114 -0.068394030714 0.17287285169 -0.98256665612 0.10683248282 0.11177134879 -0.98797468905 
0.29766008688 0.024523072828 -0.95435689948 0.48709993132 -0.080441398419 -0.86963373803 0.64953792241 -0.18542183353 -0.73737319656 
0.76686523609 -0.27222763046 -0.58121409729 0.83945462283 -0.33289450158 -0.42953135745 0.87915315963 -0.36925922519 -0.30122640409 
0.8992709935 -0.3886866815 -0.20058500411 0.90877146634 -0.39707322093 -0.12832489699 0.91298774559 -0.40023279015 -0.079164954982 
0.91478814587 -0.40038147204 -0.053453952391 0.91478814587 -0.40038147204 -0.053453952391 
FrenetBinormal 3 128 double
0.43514585702 0.16202357892 0.88566158492 0.43514585702 0.16202357892 0.88566158492 0.434367198 0.19892792937 0.87849463073 
0.43233997342 0.24109694091 0.86888112678 0.42934412488 0.27799312862 0.85929240825 0.42622574573 0.30439930014 0.85186423787 
0.42388302018 0.31919832584 0.84760581285 0.42312954732 0.32292004108 0.84657193034 0.42470887864 0.31663689526 0.84815296083 
0.42949929967 0.30095040288 0.85144536324 0.43862840923 0.27586941639 0.85527842468 0.45369010378 0.240464543 0.8581037777 
0.47681700815 0.19292139912 0.8575703321 0.51050626412 0.13079976298 0.84986750514 0.55668496255 0.052162038036 0.82908441926 
0.61447639219 -0.041634709933 0.78783584227 0.67773881555 -0.14235728906 0.72139067096 0.73579180236 -0.2343620076 0.63536200152 
0.77983643862 -0.30253339052 0.5480225147 0.80790953631 -0.34195783914 0.4799448066 0.82212575716 -0.35784852767 0.44277948311 
0.82422893745 -0.35943183916 0.43755618116 0.81406118968 -0.35524799537 0.45945972756 0.79023583101 -0.35181054328 0.50175359792 
0.75064700525 -0.3536859284 0.55806391888 0.69201932829 -0.36407917036 0.62334228717 0.60855924346 -0.38554834688 0.69354748894 