# vtk DataFile Version 4.2
vtk output
ASCII
DATASET POLYDATA
POINTS 128 float
0 0 0 -0.339015 -0.0741401 0.130754 -0.955683 -0.200954 0.350966 
-1.46343 -0.285083 0.48664 -1.91516 -0.32985 0.53644 -2.40131 -0.350393 0.521286 
-2.9142 -0.360289 0.468913 -3.41779 -0.370326 0.403857 -3.91206 -0.381636 0.325554 
-4.40523 -0.393684 0.228696 -4.89759 -0.410567 0.118096 -5.38754 -0.437809 0.00158446 
-5.87609 -0.481147 -0.113079 -6.36461 -0.546299 -0.218441 -6.85212 -0.638514 -0.308535 
-7.33639 -0.762841 -0.377482 -7.81262 -0.924076 -0.417195 -8.27507 -1.12587 -0.419813 
-8.71782 -1.36575 -0.3832 -9.1354 -1.63881 -0.30777 -9.52565 -1.93886 -0.196909 
-9.88827 -2.25931 -0.0554031 -10.227 -2.59424 0.110147 -10.5469 -2.93832 0.292593 
-10.8536 -3.28843 0.485905 -11.1521 -3.64251 0.684523 -11.4475 -3.99928 0.882886 
-11.7448 -4.3579 1.0753 -12.0482 -4.71785 1.25503 -12.362 -5.0787 1.41466 
-12.6895 -5.43928 1.54479 -13.0331 -5.79794 1.635 -13.3909 -6.15162 1.67374 
-13.7588 -6.49657 1.64975 -14.1286 -6.8285 1.55864 -14.4903 -7.14316 1.4002 
-14.8351 -7.43921 1.17981 -15.1552 -7.71711 0.906029 -15.447 -7.97962 0.588867 
-15.7094 -8.2308 0.238896 -15.9424 -8.47428 -0.13616 -16.1465 -8.71338 -0.53035 
-16.3221 -8.95095 -0.938862 -16.47 -9.18952 -1.35763 -16.5906 -9.43116 -1.78328 
-16.6843 -9.67765 -2.21291 -16.7512 -9.9304 -2.64388 -16.7918 -10.1906 -3.07375 
-16.8062 -10.459 -3.50021 -16.7946 -10.7362 -3.92107 -16.7576 -11.0226 -4.33425 
-16.6954 -11.3183 -4.73777 -16.6088 -11.6231 -5.12983 -16.4984 -11.9367 -5.50878 
-16.3652 -12.2584 -5.87333 -16.2105 -12.5875 -6.22244 -16.0356 -12.9232 -6.55533 
-15.8418 -13.2646 -6.87143 -15.6307 -13.611 -7.17069 -15.4039 -13.9612 -7.4534 
-15.1637 -14.3166 -7.71792 -14.9121 -14.6801 -7.96104 -14.6505 -15.0502 -8.18209 
-14.3795 -15.4227 -8.3819 -14.1015 -15.8079 -8.54703 -13.8216 -16.228 -8.65068 
-13.5728 -16.6758 -8.64626 -13.4165 -17.111 -8.46912 -13.376 -17.4946 -8.1286 
-13.4342 -17.7912 -7.70888 -13.5688 -17.992 -7.2647 -13.7541 -18.1182 -6.81331 
-13.9675 -18.1933 -6.36277 -14.1906 -18.2415 -5.91232 -14.4141 -18.2728 -5.46164 
-14.6399 -18.2791 -5.01157 -14.8674 -18.2564 -4.56231 -15.0912 -18.2081 -4.11297 
-15.3064 -18.1362 -3.66284 -15.5091 -18.0403 -3.21145 -15.6955 -17.9202 -2.7587 
-15.8617 -17.7763 -2.305 -16.004 -17.6097 -1.85084 -16.1187 -17.423 -1.39681 
-16.2033 -17.2192 -0.943469 -16.2568 -17.0027 -0.491268 -16.2787 -16.7781 -0.0404372 
-16.2702 -16.5502 0.409182 -16.2326 -16.3239 0.858063 -16.1682 -16.1042 1.30716 
-16.0795 -15.8958 1.7575 -15.9688 -15.7036 2.21017 -15.8387 -15.5322 2.66609 
-15.6913 -15.387 3.12586 -15.5289 -15.2733 3.58955 -15.3539 -15.1973 4.05637 
-15.1687 -15.165 4.52459 -14.9767 -15.1823 4.99085 -14.7813 -15.2543 5.45074 
-14.5869 -15.3837 5.89814 -14.3978 -15.5706 6.3272 -14.2175 -15.8103 6.73319 
-14.0486 -16.0966 7.11274 -13.8924 -16.4218 7.46536 -13.7493 -16.7783 7.79199 
-13.6183 -17.1586 8.09609 -13.4982 -17.5563 8.38147 -13.3879 -17.967 8.65198 
-13.2863 -18.3869 8.91142 -13.1923 -18.8131 9.16349 -13.105 -19.2428 9.41177 
-13.0239 -19.6741 9.65947 -12.9485 -20.1048 9.9098 -12.8791 -20.5331 10.1661 
-12.8159 -20.9571 10.4313 -12.7589 -21.3753 10.7065 -12.7084 -21.7861 10.9937 
-12.6662 -22.1868 11.2969 -12.6344 -22.5742 11.6195 -12.6149 -22.9427 11.9612 
-12.6089 -23.2895 12.3223 -12.6147 -23.6222 12.7061 -12.6313 -23.9417 13.1105 
-12.6631 -24.217 13.5104 -12.7178 -24.4323 13.9081 -12.8094 -24.6311 14.3914 
-12.9412 -24.8482 15.0077 -13.0174 -24.964 15.3527 
LINES 1 129
128 0 1 2 3 4 5 6 7 8 9 10 11 12 13 14 15 16 17 18 19 20 21 22 23 24 25 26 27 28 29 30 31 32 33 34 35 36 37 38 39 40 41 42 43 44 45 46 47 48 49 50 51 52 53 54 55 56 57 58 59 60 61 62 63 64 65 66 67 68 69 70 71 72 73 74 75 76 77 78 79 80 81 82 83 84 85 86 87 88 89 90 91 92 93 94 95 96 97 98 99 100 101 102 103 104 105 106 107 108 109 110 111 112 113 114 115 116 117 118 119 120 121 122 123 124 125 126 127 

CELL_DATA 1
FIELD FieldData 2
Length 1 1 double
59.742133081 
Tortuosity 1 1 double
0.86298027613 
POINT_DATA 128
SCALARS MaximumInscribedSphereRadius float
LOOKUP_TABLE default
1.24 1.24 1.24 1.24 1.24 1.24 1.24 1.24 1.24 
1.24887 1.25832 1.27133 1.28466 1.29687 1.30897 1.30186 1.29245 1.39091 
1.50453 1.63881 1.77642 1.8884 1.99567 1.8023 1.54698 1.34407 1.15304 
1.00884 0.876226 0.793291 0.723734 0.80016 0.919345 0.976662 1.01376 0.994946 
0.9564 0.936872 0.924759 0.936617 0.9586 0.999684 1.04945 1.11264 1.18235 
1.20642 1.20683 1.1698 1.1121 1.07349 1.04612 1.08954 1.17724 1.28445 
1.40462 1.49304 1.559 1.60045 1.62364 1.64195 1.65638 1.66475 1.668 
1.68664 1.7179 1.76491 1.83005 1.87345 1.8947 1.94065 2.01665 2.05416 
2.03919 1.97285 1.82865 1.72672 1.69162 1.68368 1.72129 1.77077 1.84155 
1.9127 1.98455 2.03221 2.03054 2.00209 1.91516 1.82138 1.71159 1.64366 
1.6807 1.71506 1.74218 1.75651 1.73373 1.70152 1.63953 1.61854 1.73892 
1.85277 1.94155 2.02373 2.07797 2.12511 2.13852 2.13893 2.07025 2.00447 
1.9558 1.91002 1.88345 1.86 1.86 1.86993 1.96543 2.06304 2.1824 
2.30189 2.42276 2.54101 2.61627 2.6907 2.73246 2.77 2.78261 2.79521 
2.79466 2.79 
TEXTURE_COORDINATES TCoords 2 float
0 0 0.00787402 0 0.015748 0 0.023622 0 0.0314961 
0 0.0393701 0 0.0472441 0 0.0551181 0 0.0629921 0 
0.0708661 0 0.0787402 0 0.0866142 0 0.0944882 0 0.102362 
0 0.110236 0 0.11811 0 0.125984 0 0.133858 0 
0.141732 0 0.149606 0 0.15748 0 0.165354 0 0.173228 
0 0.181102 0 0.188976 0 0.19685 0 0.204724 0 
0.212598 0 0.220472 0 0.228346 0 0.23622 0 0.244094 
0 0.251969 0 0.259843 0 0.267717 0 0.275591 0 
0.283465 0 0.291339 0 0.299213 0 0.307087 0 0.314961 
0 0.322835 0 0.330709 0 0.338583 0 0.346457 0 
0.354331 0 0.362205 0 0.370079 0 0.377953 0 0.385827 
0 0.393701 0 0.401575 0 0.409449 0 0.417323 0 
0.425197 0 0.433071 0 0.440945 0 0.448819 0 0.456693 
0 0.464567 0 0.472441 0 0.480315 0 0.488189 0 
0.496063 0 0.503937 0 0.511811 0 0.519685 0 0.527559 
0 0.535433 0 0.543307 0 0.551181 0 0.559055 0 
0.566929 0 0.574803 0 0.582677 0 0.590551 0 0.598425 
0 0.606299 0 0.614173 0 0.622047 0 0.629921 0 
0.637795 0 0.645669 0 0.653543 0 0.661417 0 0.669291 
0 0.677165 0 0.685039 0 0.692913 0 0.700787 0 
0.708661 0 0.716535 0 0.724409 0 0.732283 0 0.740157 
0 0.748031 0 0.755906 0 0.76378 0 0.771654 0 
0.779528 0 0.787402 0 0.795276 0 0.80315 0 0.811024 
0 0.818898 0 0.826772 0 0.834646 0 0.84252 0 
0.850394 0 0.858268 0 0.866142 0 0.874016 0 0.88189 
0 0.889764 0 0.897638 0 0.905512 0 0.913386 0 
0.92126 0 0.929134 0 0.937008 0 0.944882 0 0.952756 
0 0.96063 0 0.968504 0 0.976378 0 0.984252 0 
0.992126 0 1 0 
FIELD FieldData 7
Curvature 1 128 double
0 0.024302940575 0.043478590077 0.058113311413 0.066892096762 0.069325548708 0.065946128838 0.058438672295 0.049949814169 
0.045571647329 0.05027279963 0.063596033545 0.081500121517 0.10066431466 0.11877642057 0.13395349726 0.14456254345 0.14935055073 
0.14765385817 0.1395758532 0.12591181832 0.10796180604 0.08730665308 0.065860751605 0.046887170846 0.037944105757 0.0469459846 
0.067585891878 0.092427834591 0.11840441913 0.14378435444 0.16697777134 0.18630641303 0.20020147171 0.20757414522 0.20818121728 
0.20272369595 0.19265261147 0.17977636409 0.16587402464 0.15240129033 0.14036346899 0.1303945837 0.12265416131 0.11710177325 
0.11344572394 0.11123782016 0.11009953629 0.10957883311 0.10935867933 0.109173825 0.10891056128 0.10855715948 0.10821497194 
0.10821669336 0.10909854016 0.11168937662 0.11718518665 0.12717858796 0.14370129501 0.16923993158 0.20682298804 0.26001625542 
0.33215581493 0.42350496779 0.52526611821 0.61327023958 0.65322994653 0.62587798163 0.54554430954 0.44589010643 0.35304921748 
0.27792450117 0.22119503077 0.17997385866 0.15091636921 0.13125246522 0.11883118569 0.11168990757 0.10818850419 0.10687610103 
0.1064479622 0.10612199776 0.10535498354 0.10403595431 0.10236079695 0.10085166378 0.10021281973 0.10123725296 0.1045898122 
0.11065971596 0.11943841157 0.13053320527 0.14323228621 0.15668310467 0.16975150292 0.18125006269 0.18990368275 0.19462015474 
0.19462651896 0.18968067722 0.18007644922 0.1666262881 0.15035394169 0.13241817727 0.11378591027 0.09529108742 0.077581234436 
0.061319147904 0.047322432003 0.037109387751 0.033045833389 0.03620078888 0.044348596636 0.054780677095 0.065876801747 0.07676920024 
0.086692399293 0.09485426756 0.10039635586 0.10235571674 0.099898756101 0.09254943791 0.080269772493 0.063574400728 0.043361507406 
0.020906326166 0 
Torsion 1 128 double
0 0 0.044185755485 0.0685441681 0.10460269638 0.16153683412 0.25764965424 0.42693636298 0.702498128 
0.95415711761 0.84452243158 0.54616837738 0.33195543368 0.2092320301 0.13822023944 0.094159715703 0.064072740897 0.040763542078 
0.019380256541 -0.0045647309798 -0.037100566124 -0.089485452799 -0.18744642665 -0.3987904173 -0.88058346102 -1.4146962092 -0.9165783248 
-0.40917666302 -0.18258712297 -0.075795416627 -0.017756045968 0.018703826393 0.044866770774 0.066042345046 0.085175699508 0.10401448343 
0.12346213342 0.14407352583 0.16596607378 0.18827368584 0.20931508768 0.2267781923 0.23786681997 0.24019845921 0.23324343266 
0.21823829549 0.19802954364 0.17565143587 0.15419175526 0.13592784728 0.12234683882 0.11490001821 0.11505194069 0.12352102821 
0.14119816192 0.16754386365 0.19900538683 0.22896158269 0.24837125535 0.25071724983 0.23537552981 0.2080088658 0.17536092498 
0.14271439056 0.11239431294 0.08500451248 0.060632487167 0.038502369851 0.016410230742 -0.0082712073928 -0.037681970083 -0.073181629105 
-0.11499058748 -0.16282508862 -0.21404834499 -0.2631151759 -0.30144672363 -0.32086204134 -0.3202694126 -0.30488393423 -0.2850235722 
-0.26907800494 -0.26074203052 -0.26315298017 -0.27590690162 -0.29708239476 -0.32277777919 -0.34727176817 -0.36079630499 -0.35635929536 
-0.33302409622 -0.29549905551 -0.25215601781 -0.2096702978 -0.1721173995 -0.14061592927 -0.1151930205 -0.095405092615 -0.080288317786 
-0.069294981107 -0.062124241543 -0.058463661185 -0.058474240661 -0.063031216924 -0.073649454462 -0.093211675623 -0.12715960812 -0.18681148827 
-0.29268991092 -0.48089406403 -0.75967243257 -0.91686450589 -0.71828926609 -0.43929449677 -0.25634350717 -0.15185827401 -0.091339942864 
-0.055033886865 -0.032678287102 -0.018808521811 -0.010219948407 -0.0050101535508 -0.0020294143334 -0.00045465125752 0.00042396278327 0.00052653003891 
0 0 
Abscissas 1 128 double
0 0.50390458318 1.0078096818 1.5117164963 2.0156233109 2.5195274431 3.0234311524 3.5273338656 4.0312365487 
4.5351440545 5.0390518689 5.542953308 6.0468541775 6.5507610802 7.0546685761 7.5585736054 8.0624783406 8.5663839229 
9.0702896244 9.5741921871 10.078094245 10.581990937 11.085886643 11.589790651 12.09369637 12.597596953 13.101496373 
13.60540415 14.109313991 14.613229293 15.117146065 15.621045285 16.124939364 16.628845417 17.132755383 17.636662171 
18.140567839 18.644472124 19.148375869 19.65228817 20.156204086 20.660110741 21.164013187 21.667916288 22.171819708 
22.675721644 23.17962281 23.683522949 24.187422521 24.691325402 25.195230228 25.699130977 26.203029176 26.706933367 
27.210841542 27.714750386 28.218659702 28.722574933 29.226494568 29.73040677 30.234313047 30.738219792 31.242126934 
31.74603188 32.249935026 32.753831164 33.257719235 33.761617442 34.265525976 34.769427233 35.273319642 35.777219611 
36.28112989 36.785038325 37.288943964 37.792853967 38.296770873 38.800678614 39.30457098 39.808466163 40.312366401 
40.816274672 41.320198269 41.824110332 42.327998877 42.831896844 43.335815374 43.839727463 44.343624511 44.847528171 
45.351448405 45.855361551 46.359255624 46.863152399 47.367057018 47.870962086 48.37486857 48.878773225 49.38267157 
49.886569793 50.390467546 50.894367508 51.398276825 51.902182357 52.40606991 52.909962142 53.413879213 53.917794996 
54.421703158 54.925613384 55.429537324 55.933458094 56.437355043 56.941251875 57.445147696 57.949043153 58.452934838 
58.956828534 59.460745191 59.964660985 60.468562649 60.972464004 61.476353075 61.980244602 62.484150686 62.988056771 
63.49194873 63.995836284 
ParallelTransportNormals 3 128 double
0.34925906699 0 0.93702620248 0.26483814688 -0.014699642899 0.96101782494 0.17333130369 -0.028188552703 0.98109939502 
0.058234773001 -0.03764682104 0.98816404231 -0.056861757686 -0.047105089377 0.9952286896 -0.10437408812 -0.04918463362 0.99270533692 
-0.14122993382 -0.050100721605 0.98867017564 -0.17275684091 -0.050912773832 0.98311631127 -0.20412247018 -0.051721677466 0.97751648407 
-0.215083748 -0.052246722323 0.97514585204 -0.22473914523 -0.05275360019 0.97298188883 -0.20722499266 -0.050582905368 0.97676863847 
-0.18728339058 -0.048172984185 0.98108705151 -0.14568965738 -0.038554760968 0.98752730969 -0.10196657127 -0.028227645918 0.9941762382 
-0.03828255386 -0.0034444608475 0.99671106795 0.027780484171 0.023061654288 0.99875556357 0.092074413309 0.060434120319 0.99105173823 
0.15611958434 0.099334526736 0.98197718103 0.20456862394 0.13760660336 0.96717075394 0.25051181293 0.17577772543 0.95144337991 
0.27758883309 0.20226370009 0.93847886349 0.30120267255 0.22660468297 0.92602151284 0.31046130538 0.2368178232 0.92055626082 
0.31676200299 0.24411987728 0.9165317526 0.31013847055 0.23615506583 0.92075630845 0.30059019877 0.22473537914 0.92684761862 
0.27474016868 0.19488768875 0.94036673178 0.2448629711 0.16048756568 0.95572080078 0.19169528244 0.10374732451 0.9721116575 
0.13225695986 0.040992323849 0.98878165459 0.048500837395 -0.040300206391 0.99035608443 -0.042377845086 -0.12702228484 0.98750909933 
-0.13799266392 -0.21323886957 0.95817984183 -0.23515492655 -0.29929029369 0.92019799804 -0.31564913303 -0.37007563642 0.86646592812 
-0.39026386094 -0.4354760322 0.80717813436 -0.44270107733 -0.48383539922 0.75076869555 -0.48649115181 -0.52555036911 0.69548154423 
-0.51605308243 -0.55700357518 0.64845746082 -0.53960480467 -0.5841220388 0.60492383693 -0.55511735959 -0.6053680538 0.56919811294 
-0.56697555948 -0.62394463661 0.537021617 -0.57441073418 -0.63896077516 0.51099698704 -0.57969580906 -0.65224612761 0.48796287268 
-0.58258576109 -0.66311104089 0.46964655978 -0.58423319026 -0.6727202979 0.45377771054 -0.58469459955 -0.6804795758 0.44152798791 
-0.58450050078 -0.68721637824 0.4312785409 -0.58387525995 -0.69247795859 0.42369193983 -0.58299636048 -0.69687160502 0.41767200073 
-0.58212823732 -0.70010255803 0.41348412333 -0.58126685325 -0.702606407 0.41044194732 -0.58064535322 -0.70420482871 0.40858848146 
-0.58018328266 -0.70520149384 0.407525045 -0.58001233762 -0.70557792826 0.4071184943 -0.58004708121 -0.70551615162 0.40717605251 
-0.5810743504 -0.70390895708 0.40847498883 -0.58284026778 -0.70115164592 0.41069777209 -0.58761445882 -0.69414849831 0.41556963238 
-0.59478734371 -0.68375986686 0.42255377551 -0.60643055357 -0.66724203157 0.43171512237 -0.62186974949 -0.64551956964 0.44272524644 
-0.66715753364 -0.57413061586 0.45852349393 -0.73689473962 -0.46205910113 0.47824376443 -0.8171042264 -0.27645011779 0.43553722757 
-0.90936660805 -0.0062044258534 0.32098161022 -0.94515323924 0.19536833373 0.17533354571 -0.92340463398 0.32697985567 -0.0019902607743 
-0.89293115547 0.4137720575 -0.14694030958 -0.85184745254 0.44605996677 -0.25252098029 -0.8225078022 0.46601579729 -0.32506987553 
-0.80918411409 0.46915374439 -0.35257165742 -0.79628029328 0.47106977942 -0.37887950457 -0.78401272962 0.47113415726 -0.40337809075 
-0.77439961526 0.47069373447 -0.42267711408 -0.76898526895 0.46945482562 -0.43375154692 -0.76579615295 0.4687804941 -0.44022713553 
-0.7663401911 0.46905332486 -0.4389874803 -0.76825324564 0.4706587394 -0.43376955436 -0.77262307321 0.47465554671 -0.42141240913 
-0.7775229486 0.48080300817 -0.40478842267 -0.78343407734 0.49105360176 -0.38002393001 -0.78859835831 0.50335645579 -0.35202721785 
-0.79223990261 0.51984363281 -0.31744038191 -0.79434983714 0.53762797356 -0.2807633466 -0.79311724816 0.55824319219 -0.23952474435 
-0.79016937685 0.5792299485 -0.19691562999 -0.78321517542 0.60108449348 -0.15110545433 -0.77463227457 0.6225693792 -0.10395870068 
-0.76196666785 0.64312762985 -0.053461510081 -0.74764011988 0.66268673471 -0.00098710773574 -0.72884429977 0.67955733121 0.056807589592 
-0.70830017868 0.69439432546 0.11715651708 -0.68267994495 0.70332684778 0.18492153604 -0.65557785387 0.70871965599 0.25488102838 
-0.62379643064 0.70293493892 0.33177011472 -0.59168687179 0.69274752597 0.4085836394 -0.55844548131 0.66737398223 0.48513653077 
-0.52644622059 0.63921316897 0.55857461306 -0.49921453444 0.60035418567 0.62005735445 -0.47376708399 0.56146722947 0.67755586905 
-0.45587935822 0.52246175338 0.71817339779 -0.43944692461 0.48527800737 0.75560735247 -0.42992681243 0.45674708329 0.77792002235 
-0.4212534638 0.43020608124 0.79834591669 -0.41707593287 0.41423039782 0.80875413971 -0.41338126887 0.40000306441 0.81799008971 
-0.41254402971 0.3961218085 0.82028896906 -0.41199670584 0.39373024372 0.82171535816 -0.41337740073 0.40124554659 0.81733944029 
-0.41493222634 0.41001938592 0.81216481652 -0.41779586269 0.42825270479 0.80098691641 -0.42071073604 0.4472729151 0.7891474676 
-0.42406734828 0.47307729463 0.77160448962 -0.42744922345 0.50004111738 0.75287748771 -0.43109200159 0.53897908943 0.72192247926 
-0.43457294996 0.5782744061 0.69005053619 -0.4362069301 0.6216481079 0.6477135904 -0.43767869969 0.66450275981 0.60542928216 
-0.43648995906 0.69884417105 0.56400831326 -0.43503336499 0.73388348022 0.52103212084 -0.42289516112 0.79675395495 0.41603585039 
-0.41127601537 0.85311805651 0.31981966185 -0.40273260011 0.87092799735 0.27563072114 -0.39418918484 0.88873793818 0.23144178042 
-0.39215796296 0.89297230352 0.22093573098 -0.39215796296 0.89297230352 0.22093573098 
FrenetTangent 3 128 double
-0.98614680003 -0.11615186601 0.11841973149 -0.98614680003 -0.11615186601 0.11841973149 -0.98836784153 -0.11253920414 0.10229338863 
-0.99113483729 -0.10756630982 0.077982198592 -0.99359640001 -0.10236370264 0.047831645088 -0.99504835386 -0.098301359071 0.014683878651 
-0.99512945394 -0.096832520833 -0.018461657686 -0.99385704298 -0.099333690848 -0.048795450485 -0.99150695803 -0.10697715885 -0.073958364321 
-0.988407182 -0.12065323987 -0.092163106932 -0.98473094132 -0.14093230032 -0.1021912909 -0.98034987662 -0.16804107565 -0.10332626142 
-0.97477394912 -0.20183188138 -0.095287143835 -0.96718506695 -0.24173700708 -0.07820655772 -0.95656462031 -0.28672462221 -0.052660404414 
-0.94190731536 -0.33529314973 -0.019725947594 -0.92249300434 -0.38554683416 0.018981454386 -0.89815317837 -0.43538155115 0.06134959747 
-0.86944512033 -0.48275982821 0.10491964064 -0.83765602256 -0.52600950072 0.14712713217 -0.80462159597 -0.56404779107 0.1855644812 
-0.77242308183 -0.59645683289 0.21817843421 -0.74306099239 -0.62341011936 0.2433519769 -0.71819642422 -0.64549270417 0.25987124718 
-0.69898786248 -0.66349122517 0.26682459075 -0.68602559642 -0.67819281278 0.26348318685 -0.67931653516 -0.69023242164 0.24921526673 
-0.67828681797 -0.69999423476 0.22346154896 -0.68180626222 -0.70754869372 0.18578231027 -0.6882154422 -0.71264732365 0.13599006292 
-0.69538316977 -0.71478252056 0.074351835863 -0.70085537757 -0.71330108024 0.00181897354 -0.70209883231 -0.70759528928 -0.079788070889 
-0.69683893656 -0.69733617159 -0.1677431378 -0.68342967404 -0.68267511702 -0.25860890403 -0.66112377313 -0.66434109003 -0.3486635523 
-0.63013824824 -0.64357540247 -0.43443813075 -0.59149361618 -0.62191996664 -0.51317721804 -0.54669384023 -0.60095259737 -0.58307960072 
-0.49737704825 -0.58205819604 -0.64329179094 -0.44505208431 -0.56628412894 -0.69372251481 -0.3909589806 -0.55429430442 -0.73478493424 
-0.33602164835 -0.54639613035 -0.7671640767 -0.28088388692 -0.54260342438 -0.79163486907 -0.22597517486 -0.54270246373 -0.80895565775 
-0.17156454483 -0.54632457963 -0.81981404028 -0.11784218098 -0.55300209527 -0.8248041604 -0.064955220287 -0.56221665359 -0.82443511193 
-0.013042808616 -0.57343693439 -0.81914587676 0.037730811895 -0.5861537906 -0.8093207767 0.087169001362 -0.59991494257 -0.79530096622 
0.13504053967 -0.61435269098 -0.77738975021 0.18108489022 -0.62921967096 -0.75583785842 0.22500100939 -0.64441991066 -0.73081976199 
0.26646120757 -0.66002839755 -0.70239656839 0.30511108868 -0.67631388965 -0.6704526428 0.34055253107 -0.69373856762 -0.63462648335 
0.3723246197 -0.71292592434 -0.59423143974 0.39985541971 -0.73459844949 -0.54816125487 0.42238545184 -0.75945948337 -0.49478462304 
0.43883088592 -0.78800604564 -0.43182626784 0.44758290708 -0.82020880439 -0.35626823952 0.44622932728 -0.8549837117 -0.26435249234 
0.43127534448 -0.88933824099 -0.15191797248 0.39810757879 -0.91720623085 -0.015591209174 0.34185085094 -0.92857551457 0.14451819765 
0.25999826227 -0.91075229989 0.32082885135 0.15635646487 -0.85400274684 0.49621765817 0.04256194484 -0.75936579889 0.64927040925 
-0.06654056075 -0.64010464788 0.76540080581 -0.16004968329 -0.51368580808 0.84291813924 -0.2337783173 -0.39311452243 0.88927423814 
-0.28829674607 -0.28455035252 0.91428446508 -0.32608806928 -0.18924064926 0.92620437687 -0.34980801865 -0.10603689958 0.93080101311 
-0.3616539802 -0.033010781586 0.93172779657 -0.36326931136 0.031739548919 0.9311433877 -0.35585690938 0.089773047921 0.93021860867 
-0.34033598104 0.14217583479 0.92949311564 -0.31748301859 0.18955710252 0.92912466214 -0.28805125634 0.23213118116 0.92905413645 
-0.25284809591 0.26975339999 0.92913989452 -0.21277514462 0.30202579155 0.92925085906 -0.16884010907 0.32841368121 0.92932097338 
-0.12212358423 0.34830938028 0.92939034091 -0.0737299789 0.36111714669 0.92960114919 -0.02473164084 0.36630778452 0.93016501383 
0.023888502575 0.36343978015 0.9313113688 0.071266085943 0.35213749854 0.93323112203 0.11667253456 0.332102422 0.93599973343 
0.15949984879 0.30310214501 0.93951524092 0.19923333561 0.26496282451 0.94345152478 0.23540862276 0.2176223665 0.94721871072 
0.26756541497 0.16120406397 0.94995894568 0.29523413836 0.096115818354 0.95057800996 0.31792520917 0.023169972962 0.94783264015 
0.33517257095 -0.056301334165 0.94047302325 0.34660872437 -0.14040342267 0.92744232764 0.35205437246 -0.22673816493 0.90810105351 
0.35161822227 -0.31259587929 0.88241058585 0.34574211096 -0.39525120875 0.85102225276 0.3351767159 -0.47229101073 0.81522866136 
0.32090018352 -0.54188625616 0.77677690337 0.3039880938 -0.60292167942 0.73761554167 0.285473685 -0.6549846442 0.69964268812 
0.26624198571 -0.69823203764 0.66452029816 0.24697532371 -0.73320210817 0.63357545569 0.22813387775 -0.7606343536 0.60777488756 
0.20995828282 -0.78132446132 0.58774961133 0.19250674157 -0.79601898321 0.5738422543 0.17568604324 -0.80534512898 0.56617456446 
0.15928779149 -0.80978423098 0.56469186176 0.14302482938 -0.80966984215 0.56919121997 0.12656708057 -0.805189237 0.57935400813 
0.10957092936 -0.79640725075 0.59475179899 0.091721914094 -0.78330963041 0.61482771032 0.072771760866 -0.76585256425 0.6388850606 
0.052587622867 -0.74404281711 0.66605917773 0.031212849887 -0.71804819411 0.69529313886 0.0089073228302 -0.68831368854 0.72535848087 
-0.013819937873 -0.65568057648 0.75491190939 -0.036216537961 -0.62146965814 0.78260068131 -0.057351285506 -0.58745752532 0.8072202215 
-0.076214190007 -0.5557455447 0.82785160916 -0.091839692372 -0.52852869221 0.84393299048 -0.10341498892 -0.50782059245 0.85523305943 
-0.11035434126 -0.49518231407 0.86175193368 -0.11035434126 -0.49518231407 0.86175193368 
FrenetNormal 3 128 double
-0.14225555281 0.22504237098 -0.96390834054 -0.14225555281 0.22504237098 -0.96390834054 -0.1244924225 0.21235736015 -0.96922958494 
-0.097444764882 0.18956353101 -0.97702107731 -0.063155838094 0.15213557123 -0.98633975286 -0.02376864026 0.091894610233 -0.99548502367 
0.019125781922 -0.0059347140195 -0.99979947171 0.065035267067 -0.16745691488 -0.98373197351 0.11294069617 -0.42628921575 -0.89750872067 
0.15162302653 -0.75300908516 -0.64030287794 0.16127365942 -0.95956080447 -0.23072466122 0.15653841438 -0.98142727508 0.11088836075 
0.16210642668 -0.93367481392 0.31933187796 0.18364362545 -0.87785383058 0.44232077835 0.21921634032 -0.82655692113 0.51840896238 
0.26563219132 -0.77958347127 0.56717647188 0.3195320752 -0.73510258077 0.59793264559 0.3775581715 -0.69219937421 0.6150689827 
0.43655995694 -0.65136336154 0.62059743413 0.4939729125 -0.61461810152 0.61500841539 0.54819924303 -0.58555451475 0.59716287578 
0.59892883513 -0.5698001259 0.56268291868 0.64700770029 -0.57629800585 0.49926109825 0.69127482694 -0.61914838748 0.37255118832 
0.70307950122 -0.70579676286 0.086776405193 0.52520498163 -0.71221354826 -0.46573768255 0.16038390314 -0.47103505239 -0.86741165719 
-0.046953150758 -0.26220240404 -0.9638699606 -0.12033796949 -0.14202261944 -0.98252142402 -0.1286568996 -0.06458995683 -0.98958351829 
-0.10081373361 -0.0054111132137 -0.99489060251 -0.049544836771 0.046136149002 -0.99770575066 0.018698128132 0.093690796165 -0.99542574546 
0.099250623624 0.13787214577 -0.98546465443 0.18839076093 0.17732059993 -0.96595358379 0.28268207055 0.20990577568 -0.93596496319 
0.37929627931 0.23307799159 -0.89543787185 0.47572702961 0.24469329915 -0.84487216942 0.5701844514 0.24277851425 -0.78482372823 
0.6608234625 0.22623531041 -0.71563254239 0.74559817368 0.19474737682 -0.63730434066 0.82167825814 0.14952467687 -0.54998837362 
0.88595441347 0.093068035062 -0.4543381099 0.93540927629 0.029781797997 -0.35231027568 0.96837599527 -0.034998804735 -0.24702836972 
0.98517211302 -0.096180082057 -0.14207497863 0.9878923794 -0.14968364005 -0.040785470789 0.97959928053 -0.19337572841 0.054690741818 
0.96337028135 -0.22665810795 0.14333109609 0.9415457218 -0.25046608174 0.22529623976 0.91552253009 -0.26646997881 0.30135070481 
0.88572963478 -0.27682405481 0.37262777237 0.85153418878 -0.28419165954 0.44059576256 0.81130914995 -0.29145876244 0.50678324065 
0.76269398165 -0.30118330517 0.57235173367 0.70207462724 -0.31592393179 0.63818750152 0.62590987719 -0.33640288091 0.70361205742 
0.53165169273 -0.36097232615 0.76618891755 0.42020310028 -0.38458407004 0.82190294292 0.29699231927 -0.39977688801 0.8671643455 
0.17011327994 -0.39902486142 0.90102199305 0.046880151912 -0.37633275852 0.92529773923 -0.069426515556 -0.32757556711 0.94227077147 
-0.17847756781 -0.24915171414 0.95187666277 -0.28120912626 -0.1381996399 0.94964324188 -0.37612957966 0.0057324618185 0.92654933932 
-0.45764355463 0.17634548158 0.87147268921 -0.5167815417 0.35740785149 0.77794374209 -0.54616447581 0.52647866291 0.65155551019 
-0.54476968527 0.66598243491 0.5096012033 -0.51752071448 0.77082439714 0.37148628355 -0.46999031299 0.84635410518 0.25058697957 
-0.40513501078 0.90139922282 0.15279091642 -0.32241235941 0.94327875668 0.079217786472 -0.21938694963 0.97521723305 0.028648118413 
-0.094391748674 0.99553419266 -0.001367126553 0.050470682491 0.99862245323 -0.014349429218 0.2067540753 0.97827304848 -0.015316493229 
0.36213379211 0.93207275978 -0.0099743216441 0.50513844263 0.86303136495 -0.0034665395098 0.62916232678 0.77727345389 0.00086280626715 
0.73378191774 0.6793806943 0.0024432365347 0.82019923175 0.57207493185 0.0018688452324 0.89048929802 0.45500310746 0.00099111581858 
0.94533727008 0.32608803115 0.0020104100465 0.98304506346 0.18323847272 0.0067871445295 0.99953338494 0.025745487855 0.016437221181 
0.98915886982 -0.1436106438 0.030671048974 0.94701759302 -0.31764413028 0.047538247752 0.87334671826 -0.48306822401 0.062534795605 
0.77476363541 -0.62823503577 0.071148078606 0.66310864468 -0.74530977547 0.069283937089 0.54950640378 -0.83367919602 0.054970085829 
0.44156454456 -0.89679833454 0.027811870822 0.34250276575 -0.93944783149 -0.011385400979 0.25250520296 -0.96566510943 -0.061090252158 
0.17084413116 -0.97803231502 -0.11943648365 0.096022010173 -0.97822898969 -0.18397776302 0.027061599628 -0.96734324129 -0.25202127558 
-0.03678380392 -0.94648737299 -0.32063780896 -0.095983300465 -0.9170944426 -0.38694313455 -0.15114339273 -0.88102804723 -0.44826917676 
-0.20277184937 -0.84044344962 -0.50253197419 -0.25220358225 -0.79756328552 -0.54798372119 -0.30126899989 -0.75434410395 -0.58326834523 
-0.3532763006 -0.71211614287 -0.60670128935 -0.41273188093 -0.6711513927 -0.61579883284 -0.48744196999 -0.62959998547 -0.6049827966 
-0.58857891242 -0.5810227524 -0.56212758786 -0.72870522433 -0.50761468151 -0.45969123457 -0.89657768265 -0.36840415146 -0.24581871402 
-0.98721696386 -0.12747799046 0.095666233357 -0.90234528482 0.12958509112 0.41107261052 -0.75381574448 0.30156562887 0.58379790584 
-0.63767158194 0.4026730023 0.65668059724 -0.56220745 0.46887513074 0.68123336305 -0.51591771549 0.51931172775 0.68128132241 
-0.48795915938 0.56278841106 0.6672069118 -0.47148962379 0.60279518549 0.64368897692 -0.46163455169 0.64063198558 0.613583083 
-0.45553879499 0.67621062211 0.5789849746 -0.45120534182 0.70891861142 0.54207761612 -0.44772228633 0.73781929007 0.50514101944 
-0.44445381553 0.76215426349 0.47072463767 -0.44163530687 0.78122098737 0.44119386285 -0.4393462643 0.79473548123 0.41877246198 
-0.43777398532 0.80262677483 0.40514713142 -0.43777398532 0.80262677483 0.40514713142 
FrenetBinormal 3 128 double
0.085310295268 -0.96740098992 -0.23844806192 0.085310295268 -0.96740098992 -0.23844806192 0.087353572145 -0.97069010458 -0.22389746384 
0.090311970982 -0.9759585835 -0.19836479323 0.093688494512 -0.98304447526 -0.15762622132 0.096508161457 -0.99090474992 -0.093776070281 
0.096703538514 -0.99528299598 0.007757806398 0.089546592135 -0.98086237542 0.17288842736 0.064485279858 -0.8982390506 0.43475079835 
0.0078549598833 -0.64685401242 0.76257339727 -0.065542200064 -0.24368247627 0.96763788205 -0.12004101061 0.092534861649 0.98844699157 
-0.15341856 0.29582973737 0.94284013063 -0.1755792274 0.41344391583 0.89344057629 -0.19216743563 0.48434765113 0.85350982978 
-0.20554840841 0.52898782128 0.82336002863 -0.21657772244 0.55765386613 0.80132156824 -0.22532353478 0.57558920357 0.78608293036 
-0.23125870087 0.58537912459 0.77707830607 -0.23307327086 0.58784232106 0.77467299939 -0.22817028125 0.58221645429 0.78036038028 
-0.21129797231 0.56530262959 0.79736196541 -0.17100116184 0.52843205006 0.8315757158 -0.079580210348 0.44720738271 0.89088301531 