# vtk DataFile Version 4.2
vtk output
ASCII
DATASET POLYDATA
POINTS 128 float
0 0 0 -0.310796 0.123565 -0.0231785 -0.927634 0.354766 -0.0597038 
-1.457 0.519666 -0.0683253 -1.90841 0.622627 -0.0495305 -2.39065 0.710856 -0.0133282 
-2.89676 0.775851 0.0454449 -3.39511 0.798119 0.134549 -3.88096 0.77522 0.255218 
-4.35596 0.709501 0.406592 -4.81423 0.602018 0.587004 -5.2487 0.454352 0.794173 
-5.65816 0.272882 1.0239 -6.04377 0.0654811 1.27154 -6.40931 -0.160244 1.53331 
-6.75952 -0.397044 1.80577 -7.09973 -0.639209 2.08586 -7.43552 -0.881786 2.37063 
-7.77258 -1.1211 2.65702 -8.11653 -1.35404 2.94144 -8.47201 -1.57812 3.21731 
-8.84409 -1.79135 3.47643 -9.24348 -1.99364 3.70796 -9.67967 -2.18717 3.89361 
-10.1369 -2.38442 3.96954 -10.5836 -2.5999 3.86346 -10.9523 -2.82895 3.58935 
-11.1721 -3.05984 3.20111 -11.2628 -3.29231 2.75618 -11.2783 -3.5306 2.3083 
-11.2409 -3.776 1.87235 -11.1581 -4.02848 1.44608 -11.0358 -4.28864 1.03247 
-10.8787 -4.55731 0.636809 -10.6894 -4.83491 0.262319 -10.4692 -5.12169 -0.0883372 
-10.2182 -5.41858 -0.407932 -9.93602 -5.72671 -0.687352 -9.62469 -6.04544 -0.922329 
-9.2869 -6.37323 -1.10724 -8.92084 -6.70928 -1.1962 -8.52854 -7.04772 -1.12437 
-8.17924 -7.32511 -0.870968 -7.97258 -7.45278 -0.447818 -7.90817 -7.43602 0.069678 
-7.92822 -7.33355 0.576427 -7.9932 -7.18209 1.04788 -8.07631 -7.00374 1.50768 
-8.16329 -6.81142 1.96503 -8.24769 -6.61254 2.41999 -8.32348 -6.41558 2.87615 
-8.38489 -6.22987 3.33936 -8.42758 -6.0658 3.81308 -8.44822 -5.93467 4.29891 
-8.44494 -5.84963 4.79527 -8.41703 -5.82497 5.29799 -8.36669 -5.8716 5.79775 
-8.2984 -5.99737 6.28132 -8.2178 -6.20231 6.73554 -8.13139 -6.48023 7.14757 
-8.04433 -6.82168 7.50856 -7.96063 -7.21477 7.81304 -7.88255 -7.64807 8.05842 
-7.81087 -8.11075 8.24459 -7.74583 -8.59342 8.37316 -7.68718 -9.08802 8.44721 
-7.63471 -9.58812 8.4711 -7.58832 -10.0888 8.4504 -7.5482 -10.5869 8.39151 
-7.51485 -11.0807 8.30167 -7.48902 -11.5701 8.1884 -7.47172 -12.0559 8.05953 
-7.46408 -12.5398 7.92325 -7.46725 -13.0242 7.78818 -7.48198 -13.5112 7.66343 
-7.50847 -14.0025 7.55865 -7.54554 -14.4985 7.48279 -7.59032 -14.9982 7.44394 
-7.63816 -15.4992 7.44727 -7.68227 -15.9983 7.49432 -7.71512 -16.4925 7.58399 
-7.72836 -16.9791 7.71201 -7.71348 -17.4557 7.87319 -7.66182 -17.9199 8.0614 
-7.56488 -18.3678 8.2702 -7.41447 -18.794 8.49272 -7.20453 -19.1913 8.72156 
-6.93223 -19.5496 8.9485 -6.5994 -19.8599 9.16616 -6.2146 -20.1151 9.36855 
-5.78826 -20.3116 9.552 -5.33293 -20.4518 9.71626 -4.85943 -20.5404 9.86258 
-4.37552 -20.5846 9.9941 -3.88707 -20.5919 10.1143 -3.39729 -20.5693 10.2269 
-2.90845 -20.5231 10.3356 -2.42159 -20.4588 10.4441 -1.93751 -20.3814 10.556 
-1.45673 -20.2949 10.6754 -0.979984 -20.203 10.8064 -0.508411 -20.1092 10.9539 
-0.0437906 -20.0162 11.1227 0.410902 -19.9269 11.3186 0.851902 -19.8432 11.5462 
1.27405 -19.7665 11.809 1.67307 -19.6974 12.1078 2.04719 -19.6353 12.4386 
2.39705 -19.5793 12.7956 2.7284 -19.5291 13.1708 3.04852 -19.4847 13.556 
3.3667 -19.4481 13.9437 3.69155 -19.4218 14.3268 4.02896 -19.4104 14.6995 
4.3827 -19.4186 15.0572 4.7518 -19.4513 15.3975 5.13316 -19.5134 15.7198 
5.51987 -19.6093 16.0272 5.90434 -19.7422 16.3236 6.27922 -19.9127 16.6125 
6.63431 -20.123 16.8996 6.94992 -20.3828 17.1966 7.20922 -20.6938 17.5093 
7.41205 -21.0244 17.8169 7.55281 -21.3604 18.1136 7.59172 -21.7811 18.4698 
7.5216 -22.2848 18.8888 7.46521 -22.5408 19.1006 
LINES 1 129
128 0 1 2 3 4 5 6 7 8 9 10 11 12 13 14 15 16 17 18 19 20 21 22 23 24 25 26 27 28 29 30 31 32 33 34 35 36 37 38 39 40 41 42 43 44 45 46 47 48 49 50 51 52 53 54 55 56 57 58 59 60 61 62 63 64 65 66 67 68 69 70 71 72 73 74 75 76 77 78 79 80 81 82 83 84 85 86 87 88 89 90 91 92 93 94 95 96 97 98 99 100 101 102 103 104 105 106 107 108 109 110 111 112 113 114 115 116 117 118 119 120 121 122 123 124 125 126 127 

CELL_DATA 1
FIELD FieldData 2
Length 1 1 double
56.323722958 
Tortuosity 1 1 double
0.84826968512 
POINT_DATA 128
SCALARS MaximumInscribedSphereRadius float
LOOKUP_TABLE default
1.24 1.24 1.24 1.24 1.24 1.24 1.24 1.24 1.24 
1.24 1.24 1.24 1.23999 1.2314 1.22182 1.18968 1.15446 1.15246 
1.15577 1.18619 1.22159 1.30344 1.39503 1.46663 1.53351 1.41996 1.25938 
1.09742 0.935151 1.00317 1.13178 1.16445 1.16953 1.12956 1.07533 1.12407 
1.20857 1.32406 1.45131 1.51001 1.54067 1.60244 1.67782 1.73976 1.79598 
1.74682 1.64963 1.49684 1.31745 1.28476 1.32857 1.40942 1.51114 1.54724 
1.54352 1.51479 1.4698 1.39697 1.30485 1.20653 1.10363 1.06514 1.07714 
1.17031 1.33132 1.44466 1.51542 1.55438 1.56294 1.59549 1.65261 1.72098 
1.80172 1.84874 1.85596 1.86 1.86 1.85994 1.8598 1.82033 1.72346 
1.5935 1.4117 1.34632 1.4769 1.59776 1.70103 1.71271 1.54685 1.46552 
1.5596 1.70271 1.95529 2.12314 2.08599 2.03112 1.92952 1.81224 1.6497 
1.5037 1.41022 1.34933 1.40276 1.47335 1.61079 1.75666 1.93911 2.09723 
2.13662 2.17048 2.17366 2.17737 2.18461 2.19122 2.1931 2.19275 2.17215 
2.14812 2.08598 2.02834 2.0355 2.0432 2.06122 2.07687 1.95434 1.83046 
1.69023 1.55 
TEXTURE_COORDINATES TCoords 2 float
0 0 0.00787402 0 0.015748 0 0.023622 0 0.0314961 
0 0.0393701 0 0.0472441 0 0.0551181 0 0.0629921 0 
0.0708661 0 0.0787402 0 0.0866142 0 0.0944882 0 0.102362 
0 0.110236 0 0.11811 0 0.125984 0 0.133858 0 
0.141732 0 0.149606 0 0.15748 0 0.165354 0 0.173228 
0 0.181102 0 0.188976 0 0.19685 0 0.204724 0 
0.212598 0 0.220472 0 0.228346 0 0.23622 0 0.244094 
0 0.251969 0 0.259843 0 0.267717 0 0.275591 0 
0.283465 0 0.291339 0 0.299213 0 0.307087 0 0.314961 
0 0.322835 0 0.330709 0 0.338583 0 0.346457 0 
0.354331 0 0.362205 0 0.370079 0 0.377953 0 0.385827 
0 0.393701 0 0.401575 0 0.409449 0 0.417323 0 
0.425197 0 0.433071 0 0.440945 0 0.448819 0 0.456693 
0 0.464567 0 0.472441 0 0.480315 0 0.488189 0 
0.496063 0 0.503937 0 0.511811 0 0.519685 0 0.527559 
0 0.535433 0 0.543307 0 0.551181 0 0.559055 0 
0.566929 0 0.574803 0 0.582677 0 0.590551 0 0.598425 
0 0.606299 0 0.614173 0 0.622047 0 0.629921 0 
0.637795 0 0.645669 0 0.653543 0 0.661417 0 0.669291 
0 0.677165 0 0.685039 0 0.692913 0 0.700787 0 
0.708661 0 0.716535 0 0.724409 0 0.732283 0 0.740157 
0 0.748031 0 0.755906 0 0.76378 0 0.771654 0 
0.779528 0 0.787402 0 0.795276 0 0.80315 0 0.811024 
0 0.818898 0 0.826772 0 0.834646 0 0.84252 0 
0.850394 0 0.858268 0 0.866142 0 0.874016 0 0.88189 
0 0.889764 0 0.897638 0 0.905512 0 0.913386 0 
0.92126 0 0.929134 0 0.937008 0 0.944882 0 0.952756 
0 0.96063 0 0.968504 0 0.976378 0 0.984252 0 
0.992126 0 1 0 
FIELD FieldData 7
Curvature 1 128 double
0 0.031126797899 0.058366764486 0.084173894167 0.10773572584 0.12806153271 0.14403476929 0.15456781057 0.15883683068 
0.15651307131 0.14789283021 0.13385768974 0.11571793362 0.095063371367 0.073906310975 0.055872968034 0.049034039579 0.061659516938 
0.090353452565 0.13064559572 0.18258061014 0.24792604475 0.32700530496 0.41454919056 0.49524789787 0.54545268749 0.547130963 
0.50329204029 0.43532200235 0.36604037527 0.30908297374 0.26932120286 0.24715372301 0.24180195064 0.25313513077 0.2831020238 
0.33666645492 0.42318982263 0.55569967629 0.74223733996 0.95627721215 1.0991786371 1.0560860625 0.84768777722 0.60184720255 
0.40086880902 0.25705182698 0.15649734762 0.084825561392 0.038654004546 0.046429026311 0.084736569698 0.1261961331 0.16787737107 
0.20874991157 0.24712768088 0.28059047618 0.30632128602 0.32196737357 0.32637142507 0.31997337961 0.30451341776 0.28239667076 
0.25604509803 0.22742854572 0.19790892428 0.16837701053 0.13935465877 0.11115202679 0.084068237707 0.05849599281 0.035836168555 
0.022386669908 0.030040734175 0.047923062781 0.066898653954 0.085111613641 0.10225378429 0.11863251319 0.13485984183 0.15166138007 
0.16964311311 0.18892797262 0.20903997475 0.22870041494 0.24599779943 0.25858401566 0.2643649612 0.26196344804 0.25130414124 
0.23358631878 0.21077864193 0.18514935198 0.15880203049 0.13328257736 0.1099356014 0.090003735401 0.074974818912 0.066477036018 
0.065249812618 0.069748506576 0.077019192682 0.084349546119 0.089782168872 0.092135119238 0.090897879027 0.086362979463 0.079533016591 
0.072281471073 0.066955364192 0.065954652672 0.070143956409 0.078658918013 0.089729532664 0.10219262348 0.11543955675 0.12925304811 
0.1433754555 0.15701440975 0.16842176677 0.17512306772 0.17436415534 0.16404440675 0.14356255425 0.11404275252 0.077761248241 
0.037382054106 0 
Torsion 1 128 double
0 0 0.0041834332844 0.00568687905 0.0071603171955 0.0084400398178 0.0093235355245 0.009408845214 0.0079118171588 
0.0034273182052 -0.0067731826767 -0.028098462221 -0.071993613409 -0.1649910952 -0.371296122 -0.803618734 -1.1873551795 -0.77878303107 
-0.32536645361 -0.095199157823 0.021123808921 0.086549765751 0.12719285769 0.15472484003 0.17606711489 0.19677182141 0.22113220468 
0.25152249796 0.2876424427 0.32641787586 0.36208135157 0.38593741447 0.38877256402 0.36674000221 0.32438986743 0.27141589822 
0.21693462653 0.16580558615 0.12015034618 0.081319375245 0.051115138564 0.030687508068 0.01880608338 0.014098676854 0.018259653268 
0.036966444111 0.084739626378 0.20969573137 0.63924133988 2.6939527356 1.5741929108 0.36844311188 0.10750502785 0.019598976722 
-0.019260131095 -0.038685536598 -0.048442370584 -0.05284382662 -0.05381158569 -0.052560365123 -0.050241529129 -0.047931973188 -0.046506356264 
-0.047099096495 -0.050847510451 -0.05903615617 -0.073639937744 -0.098096288522 -0.1403860125 -0.22077347575 -0.40546704542 -0.96171380989 
-2.2663578924 -1.2534992902 -0.55212865802 -0.35562586756 -0.29504704436 -0.27871916148 -0.27734503048 -0.27775738955 -0.27234651493 
-0.2578800614 -0.23467093255 -0.20502386621 -0.17256015835 -0.13972776089 -0.10834434137 -0.079215816874 -0.051936482887 -0.025851539362 
0.00042158975029 0.028953716156 0.062846246715 0.10664317812 0.16728451245 0.25504239304 0.37896377754 0.52791456072 0.63138188999 
0.60051384546 0.46936931302 0.33606480969 0.24366036896 0.19105979257 0.17014781435 0.17787751659 0.21425585445 0.2823789049 
0.37736382223 0.46436402543 0.47165630092 0.37053844825 0.21960081189 0.079985372042 -0.028260386097 -0.10489178702 -0.15294165189 
-0.17557877716 -0.17739289461 -0.16470922228 -0.14387883862 -0.11991325696 -0.096209751455 -0.074011217342 -0.053527325804 -0.035880994911 
0 0 
Abscissas 1 128 double
0 0.50282574965 1.0056514993 1.508479218 2.0113071019 2.514132917 3.0169587 3.5197812733 4.0226036538 
4.525430019 5.0282566777 5.5310829039 6.0339090894 6.5367334786 7.0395576625 7.5423836533 8.0452098907 8.5480356193 
9.0508612665 9.5536879478 10.05651482 10.559339876 11.062164553 11.564983983 12.067802175 12.570628304 13.073456501 
13.5762867 14.079117339 14.581941908 15.08476488 15.587589662 16.090414965 16.593240635 17.096066422 17.598888321 
18.101708869 18.604543472 19.107383413 19.61021365 20.113039918 20.615866794 21.118693935 21.621520043 22.124345711 
22.627171755 23.129997971 23.632825461 24.135653562 24.638477441 25.141299119 25.644123221 26.146948689 26.649775921 
27.152604224 27.655431881 28.158259119 28.661084375 29.163908256 29.666733384 30.169559428 30.672385116 31.175210526 
31.678038441 32.18086845 32.683694282 33.186516385 33.689350527 34.192196172 34.695016812 35.197811856 35.700617425 
36.203434562 36.706270197 37.209127675 37.711973143 38.214803388 38.717623599 39.220430165 39.723243106 40.226065351 
40.728897531 41.231745277 41.734582498 42.237402007 42.740221155 43.243039653 43.745858232 44.248676966 44.751497103 
45.254320151 45.757145861 46.259977515 46.762806037 47.265626982 47.768447837 48.271268453 48.77409287 49.276928256 
49.779761387 50.282587362 50.785409936 51.288220578 51.791037816 52.29388075 52.796719188 53.299538098 53.802358738 
54.305187815 54.808013145 55.310817675 55.813627474 56.316471135 56.819311442 57.322126456 57.824942888 58.327772118 
58.830601415 59.333431459 59.836260431 60.339073969 60.841887726 61.344705536 61.847523381 62.350343305 62.853166047 
63.356023076 63.858880106 
ParallelTransportNormals 3 128 double
-0.063146188719 0 0.99800428799 -0.029275894182 -0.010968829812 0.99882742108 0.0045944003559 -0.021937659623 0.99965055417 
0.047152003709 -0.031183611445 0.99747984929 0.090438753981 -0.040284957935 0.99505786432 0.1496933645 -0.044730177254 0.9857971285 
0.20919640569 -0.049102955762 0.97642999423 0.27503740298 -0.043280730576 0.95794233927 0.34125914106 -0.036846059728 0.9389067862 
0.40116957477 -0.020292677473 0.9132830475 0.46061503213 -0.002993813598 0.88717393362 0.50375456816 0.017018477862 0.86206212493 
0.5453657689 0.037285095776 0.83704379251 0.57038171022 0.05262885187 0.8190488431 0.59350029248 0.067409770332 0.80185688683 
0.60283275306 0.073813317924 0.79436952078 0.61028415852 0.079073810435 0.788206303 0.60331631973 0.074369936309 0.79391168454 
0.59404312861 0.068072956784 0.80151462068 0.56004140101 0.048118385366 0.82543701658 0.52148366977 0.025647529239 0.85236612167 
0.41431921665 -0.026300413408 0.89849855318 0.29276115881 -0.084432612061 0.94865981864 0.046683914578 -0.20706685358 0.92786324228 
-0.22876453926 -0.34491564216 0.8903293445 -0.4031228555 -0.47596685712 0.73709809131 -0.55113341245 -0.60524637766 0.55371190763 
-0.58573102151 -0.66304658402 0.45784148972 -0.59541953073 -0.70514765368 0.38119232467 -0.59380860305 -0.72752434192 0.34199299134 
-0.58922464341 -0.74471128338 0.31264720626 -0.58446425633 -0.75535956632 0.29592551811 -0.57965314437 -0.76412791153 0.28283339956 
-0.57637312095 -0.7690839105 0.27615663241 -0.57357821595 -0.77283198495 0.27151254011 -0.57448540421 -0.77198598336 0.27200926458 
-0.57667819 -0.76954463221 0.27429120107 -0.58698905311 -0.75937983243 0.28002070301 -0.6003830598 -0.74628176407 0.28705954692 
-0.63825022902 -0.71297695692 0.28377209672 -0.68612779068 -0.67140687612 0.27626082557 -0.73137606309 -0.63824718095 0.22531386731 
-0.77547394347 -0.60876727893 0.15536250777 -0.78931996051 -0.60209454289 0.11808844262 -0.79027338071 -0.6051416576 0.094740633118 
-0.7912346336 -0.60454407271 0.091823472348 -0.79219945656 -0.60228526634 0.098218418566 -0.7937780942 -0.59854733732 0.10740457318 
-0.79565045332 -0.5941016212 0.11792637176 -0.79670493363 -0.59134650349 0.12468561559 -0.79733280702 -0.58947320464 0.12948230476 
-0.79722486948 -0.59072464515 0.12391090789 -0.79670250244 -0.59373602716 0.11249991195 -0.79770651015 -0.59608647574 0.083512544862 
-0.7996368648 -0.5980358081 0.043858192188 -0.80567116622 -0.58889718461 -0.011486243924 -0.81437629961 -0.57254256422 -0.077041722986 
-0.82597769933 -0.53994219348 -0.14365090696 -0.83958674455 -0.49608052834 -0.21099050233 -0.85294749688 -0.4422287467 -0.26773003555 
-0.86612543429 -0.3810213686 -0.31666487707 -0.87746401982 -0.3189283182 -0.35282783011 -0.8873608406 -0.25614103897 -0.37897961627 
-0.89548302272 -0.19748678805 -0.39568816715 -0.90212157814 -0.14228781581 -0.40450202018 -0.90744058145 -0.092710508359 -0.40789707778 
-0.91158120812 -0.048153418373 -0.40645308278 -0.91476709851 -0.0088989231757 -0.40272952584 -0.91704079608 0.025289263071 -0.39682798517 
-0.91860489778 0.054892426672 -0.39070946712 -0.9194426272 0.07980216767 -0.38436884187 -0.91982150659 0.099941040899 -0.3791645739 
-0.91969603029 0.11483590394 -0.37520935945 -0.91961842672 0.1230811153 -0.37303199972 -0.91959734846 0.12347480915 -0.37295382625 
-0.92037183435 0.11438946547 -0.37352068434 -0.92215469969 0.093289419274 -0.37490512148 -0.92470458056 0.061499685738 -0.37372008818 
-0.92829761702 0.015171775736 -0.36904052662 -0.9307292306 -0.040600752316 -0.35875163391 -0.93146634414 -0.11015284873 -0.34027880388 
-0.92715660569 -0.18771524408 -0.3147200989 -0.9149396258 -0.27782791193 -0.27805947847 -0.89200028699 -0.37369399097 -0.23442441822 
-0.85101392335 -0.47924375575 -0.17905053357 -0.79507406176 -0.58364878332 -0.12005665536 -0.71209805083 -0.6859841088 -0.054517774315 
-0.61915685603 -0.77759646472 0.0082498504912 -0.5069015316 -0.84842598045 0.065646334836 -0.39650047182 -0.9064106207 0.11674690503 
-0.28994715252 -0.93774116551 0.15478297359 -0.19188138167 -0.96144236535 0.18771235249 -0.11276723674 -0.9681081995 0.20923913704 
-0.042148995155 -0.9720896008 0.22787992345 0.0079128752828 -0.96957584841 0.23953785632 0.051391686827 -0.96679382016 0.24963692769 
0.077513426123 -0.96330444847 0.2556258624 0.098685976629 -0.96039516188 0.26053518657 0.10557247534 -0.95916031653 0.26232816723 
0.10865796845 -0.95864399518 0.26297461916 0.09967905162 -0.9604082724 0.25998198341 0.088115302779 -0.96266583805 0.25553465205 
0.067485553726 -0.966653556 0.24598514355 0.046276187294 -0.97068780478 0.23520977754 0.022808889115 -0.97490331704 0.21965901544 
0.00053645948973 -0.97885597593 0.20409411311 -0.016546634286 -0.98166705793 0.18846779949 -0.032610472442 -0.98427179922 0.17336908349 
-0.043701160093 -0.98586976325 0.16084462092 -0.054947700695 -0.98740110498 0.14805285917 -0.067059665367 -0.98856250479 0.13377683194 
-0.08049784999 -0.98957960661 0.11829147613 -0.10245799462 -0.98966948542 0.095035275311 -0.12630482129 -0.98918614625 0.070500927163 
-0.16437904493 -0.98438019234 0.036328119023 -0.20406844182 -0.9784599193 0.0012449216073 -0.25833381713 -0.96248357854 -0.042053997821 
-0.31352325702 -0.94495769218 -0.086180002232 -0.37898655388 -0.91020377881 -0.13950163311 -0.44462959563 -0.87341679131 -0.19403435036 
-0.51285699721 -0.80739840252 -0.26597998495 -0.57952034991 -0.7406896053 -0.33795949804 -0.61713608014 -0.66115849553 -0.41056820484 
-0.65418187557 -0.58149436179 -0.48320156925 -0.65801599267 -0.49407855375 -0.5572718007 -0.66155895006 -0.41330103035 -0.62571719962 
-0.66155895006 -0.41330103035 -0.62571719962 -0.66155895006 -0.41330103035 -0.62571719962 
FrenetTangent 3 128 double
-0.97762327643 0.2011856201 0.061457917745 -0.97762327643 0.2011856201 0.061457917745 -0.9800455008 0.18414639481 0.074839305434 
-0.98291951991 0.15699675139 0.096027274463 -0.9849074398 0.12045330883 0.12429133287 -0.9844471155 0.075628206186 0.15856938926 
-0.98001721957 0.024101547199 0.19744711893 -0.97044315571 -0.032072768655 0.23918908638 -0.95518605044 -0.09047135166 0.2818413447 
-0.93453465767 -0.14852586706 0.32339610453 -0.90963038516 -0.20382525725 0.36197766077 -0.88230814995 -0.25441675138 0.39598541028 
-0.85480178673 -0.29902319464 0.424145063 -0.82940351565 -0.33713356678 0.44545568396 -0.80816428402 -0.36897282681 0.45905287615 
-0.79267309611 -0.3953944137 0.46403945987 -0.78391545641 -0.41773917591 0.45931529271 -0.78217767902 -0.43768844243 0.44342632511 
-0.78694498158 -0.45711956107 0.41443853929 -0.79673136854 -0.47794341754 0.36985026161 -0.80876639549 -0.50188814551 0.30660268577 
-0.81851316359 -0.53013743413 0.22133798128 -0.81910958361 -0.56274055345 0.1112769497 -0.80126583028 -0.59783357658 -0.023834511596 
-0.75481254187 -0.63112257171 -0.17872416211 -0.67295909924 -0.65673605289 -0.34032896966 -0.55755708145 -0.67009869107 -0.48999780117 
-0.42006173729 -0.67093805018 -0.61105668287 -0.27580655395 -0.6633068662 -0.69566856049 -0.13695705645 -0.65278935195 -0.74505625738 
-0.0097671723308 -0.64391975441 -0.76503068711 0.10427638106 -0.63935259628 -0.76181014301 0.20629707794 -0.64016873212 -0.74001723632 
0.29842976065 -0.6464163198 -0.70220055501 0.38293062509 -0.65748565323 -0.64890427042 0.4617360868 -0.6722121544 -0.57873189442 
0.53607797783 -0.68867003337 -0.48821510303 0.60581714424 -0.70352856281 -0.37152812687 0.66803204419 -0.7106992967 -0.22054409446 
0.71435609003 -0.69926168602 -0.026990203885 0.72821350606 -0.65254132306 0.2095111245 0.68880760476 -0.55497809274 0.46641548023 
0.59026042948 -0.41063869698 0.6949593412 0.45683844526 -0.25031760369 0.85360396684 0.32394938343 -0.10717246652 0.93998449955 
0.21263696068 0.0039796849666 0.9771231678 0.12792071718 0.082882361696 0.98831513407 0.067407507851 0.13409164326 0.98867368686 
0.026970830234 0.16202030929 0.98641877197 0.0027948424181 0.16965219591 0.98550003616 -0.0082273404899 0.15861571604 0.98730611539 
-0.0086059498245 0.12958896117 0.99153045277 -0.00047556843461 0.082769379111 0.99656861466 0.014197997214 0.018373128645 0.99973038616 
0.033475414138 -0.062831259583 0.99746259552 0.055343250077 -0.15899754166 0.98572658806 0.077719532291 -0.26681814145 0.96060801251 
0.098574393172 -0.38145315469 0.91911728293 0.11612075639 -0.49694202236 0.85997941624 0.12905217608 -0.60707469601 0.78409556134 
0.13670588087 -0.70644229487 0.69444278825 0.13906600723 -0.79126950433 0.5954437145 0.13662391706 -0.85975408525 0.49209431838 
0.13017583429 -0.91191937431 0.38917516227 0.12061237693 -0.9491662633 0.29075085408 0.10877476341 -0.97374188697 0.19998697059 
0.095383457956 -0.98828164476 0.11916957072 0.081026296612 -0.99546578425 0.049825813049 0.066190727594 -0.99778162046 -0.007115157041 
0.051311418601 -0.99737028167 -0.051182609957 0.036838890584 -0.99593172275 -0.082236851555 0.023301837903 -0.99467523584 -0.10039023639 
0.011360759142 -0.99430355287 -0.10597819539 0.0018525294051 -0.99503074952 -0.099550869628 -0.0041940956516 -0.99663122804 -0.081906073403 
-0.0055756196062 -0.99851798254 -0.054136411095 -0.00096471632527 -0.99984360955 -0.017658588728 0.011007232942 -0.9996068588 0.025786986272 
0.031635629921 -0.99674191628 0.074193929979 0.062025580406 -0.99016610151 0.12539505091 0.10297817058 -0.97877719301 0.17717421606 
0.15486754786 -0.9614125411 0.22738066856 0.21750817983 -0.93681180834 0.27399603548 0.2900033947 -0.90363939574 0.31517276774 
0.37058734691 -0.86061897249 0.34928498752 0.45653523647 -0.80681303837 0.37500439862 0.5442319484 -0.74200011594 0.39146828005 
0.62950954398 -0.66703038715 0.39848236681 0.70824930314 -0.58397939591 0.39667491698 0.7770708799 -0.4959687277 0.3875253137 
0.833888001 -0.40665865236 0.37317494857 0.87808284259 -0.31962922464 0.35610066035 0.91030651955 -0.23786645992 0.33876479703 
0.93205316822 -0.16347068927 0.32334845812 0.94517605336 -0.097659325696 0.31161656609 0.95150693682 -0.040918306851 0.3048938198 
0.95261430583 0.0068148879255 0.3041044913 0.9496852541 0.045947518721 0.30981727466 0.94350198334 0.077070529719 0.32227960047 
0.93448597079 0.10086432085 0.34141230086 0.92278621846 0.11801376104 0.36679469355 0.90840998839 0.12916723947 0.3976268568 
0.89137576157 0.13493362353 0.4327148818 0.87186921797 0.13584745922 0.47052049327 0.85037093449 0.13237630477 0.50926003938 
0.82771042099 0.12491989922 0.54707447187 0.80501725223 0.11376400719 0.58224133681 0.78356490846 0.099063446112 0.61336161265 
0.76454573732 0.080812357996 0.63948352468 0.74883841059 0.058840531222 0.66013546088 0.73681758098 0.032828159064 0.67529413171 
0.72823905699 0.0023493658919 0.68531916386 0.72221906645 -0.033047705822 0.69087442361 0.7172942049 -0.073735517912 0.69285791979 
0.71155046608 -0.11991392351 0.69232693518 0.70280618659 -0.17153807229 0.69038985642 0.68882750857 -0.22819854564 0.68807128062 
0.66757047398 -0.28903121292 0.6861564109 0.63747189734 -0.35263256236 0.68504003975 0.5978113277 -0.41698779562 0.68464793491 
0.54911203935 -0.47952895442 0.68449101536 0.49345509309 -0.53740821596 0.68388192001 0.43452321729 -0.58796858648 0.68226279024 
0.37718483947 -0.62928052066 0.67951278369 0.32668128604 -0.66048382463 0.67604767195 0.28772171512 -0.68170982303 0.67267223209 
0.26380704657 -0.69362789945 0.67028813154 0.26380704657 -0.69362789945 0.67028813154 
FrenetNormal 3 128 double
-0.12193537509 -0.78001436565 0.61376653027 -0.12193537509 -0.78001436565 0.61376653027 -0.10034375191 -0.78334603003 0.61343306781 
-0.066027648812 -0.78788263277 0.61227551525 -0.019991110945 -0.79246881687 0.60958471911 0.036247746963 -0.79573708756 0.60455652202 
0.10057758729 -0.79634786129 0.59641783404 0.17030534062 -0.79324540077 0.58460056887 0.24227051616 -0.7860079124 0.56876757876 
0.31308388888 -0.77516310773 0.54872637529 0.37940548104 -0.7624944548 0.52407412391 0.43808358049 -0.75150949674 0.49327097301 
0.48590175801 -0.74818891795 0.45178847332 0.51806876075 -0.76252717799 0.38750104768 0.52208367191 -0.80954853157 0.268439592 
0.45428789107 -0.89069111377 0.017083673076 0.2216641596 -0.8793493943 -0.42143759099 -0.059061231074 -0.6564058299 -0.75209251922 
-0.18378127834 -0.46753930288 -0.86465683482 -0.19757375536 -0.37236854514 -0.90681104856 -0.1514660782 -0.32598725703 -0.93316147338 
-0.065367107935 -0.2968334184 -0.95268938428 0.052938044525 -0.26731268728 -0.9621546085 0.1979031298 -0.22723101732 -0.95352001342 
0.36109601347 -0.17233606381 -0.91646601146 0.52862671182 -0.10518844523 -0.84231181313 0.68328529472 -0.035240915939 -0.72930054426 
0.81099426082 0.024617684692 -0.58453595143 0.9056411368 0.063196370791 -0.41930937272 0.96717358899 0.074406727541 -0.24297919182 
0.99645983953 0.057619192765 -0.0612194154 0.99247439819 0.01745297859 0.12120215543 0.95411042862 -0.036162209103 0.29726349362 
0.88433826578 -0.089464575775 0.45819419612 0.79136786039 -0.12889259803 0.59759819922 0.68490592003 -0.14440672352 0.7141782543 
0.57071101024 -0.13048205015 0.81071781612 0.44841518743 -0.083807138241 0.88988773633 0.31184092288 -0.001725680484 0.95013275959 
0.15177422845 0.11716846497 0.98144594064 -0.037180491408 0.26763451027 0.96280287701 -0.24374022381 0.4286328662 0.86997963729 
-0.4342115733 0.56424831983 0.70219950383 -0.57541578453 0.64863471952 0.49816631314 -0.66215151982 0.6839651246 0.30618143825 
-0.71128184791 0.68627760976 0.15199070755 -0.74472452681 0.66614027197 0.040527980631 -0.78608910903 0.61737800158 -0.030138278537 
-0.87379487597 0.48312162606 -0.055461781116 -0.99402521546 -0.10706224912 0.021249608048 -0.24630838372 -0.9572404492 0.15173299749 
0.11365143089 -0.98501526169 0.12972388559 0.20803020637 -0.97475800375 0.081057185792 0.23231111496 -0.97253233533 0.014574038508 
0.2291702484 -0.97094818381 -0.068852172162 0.21150515412 -0.96296894533 -0.16720161517 0.1849377357 -0.9429416327 -0.27687381824 
0.15226667267 -0.90695776951 -0.39273714456 0.11552801023 -0.85320205276 -0.50862514294 0.076599644364 -0.78224226927 -0.61824714043 
0.037201354131 -0.69686859179 -0.71623335934 -0.001384940053 -0.6014411598 -0.79891589873 -0.038385009333 -0.50097389044 -0.86461075182 
-0.073636171128 -0.40032311981 -0.91341070393 -0.10794633215 -0.30369251921 -0.94663532744 -0.14275038092 -0.21439649819 -0.96625900788 
-0.18065531436 -0.13491338305 -0.97424947342 -0.22538400012 -0.066994689285 -0.97196386975 -0.28328551615 -0.011954234558 -0.95896111111 
-0.36584864893 0.028915172465 -0.93022506894 -0.49820648874 0.053033030889 -0.86543503061 -0.73811961252 0.050609378463 -0.67276900079 
-0.99845738348 -0.017040599445 0.052843839272 -0.54680932779 -0.084357710884 0.83299660003 -0.17181439161 -0.079970572986 0.98187805877 
0.039257913071 -0.054314087078 0.99775187106 0.19312249726 -0.017512446892 0.98101835623 0.32566900449 0.027966220274 0.94507015085 
0.4472284384 0.080501819138 0.89078963903 0.55857691549 0.13855645764 0.81779822544 0.65587348394 0.20072920547 0.72769345135 
0.73409434958 0.26601365273 0.62477373702 0.78954959359 0.33391134969 0.51489285274 0.820597779 0.40425324009 0.40397846846 
0.82748395891 0.47672027403 0.29666155478 0.81171864287 0.55027970873 0.19571685412 0.77530869736 0.62309772392 0.10317776043 
0.72106126692 0.69257640759 0.020213090058 0.65243149084 0.7560745704 -0.051811135447 0.57353717516 0.81157145104 -0.11138621356 
0.48877293142 0.85816045273 -0.15704030972 0.40207402079 0.8963240227 -0.18692171658 0.31635594607 0.92757971231 -0.19878328074 
0.23281978821 0.95401870046 -0.18879424087 0.1507105809 0.97698652999 -0.15094250898 0.066742722001 0.99496550333 -0.074759990905 
-0.024586874295 0.99820284232 0.054649530563 -0.12764515611 0.9600845878 0.2488861153 -0.23545290896 0.84027512124 0.48836425779 
-0.32457979821 0.63533060323 0.70071604747 -0.38176244162 0.40894879306 0.82886568443 -0.41724740469 0.22008615927 0.88174071346 
-0.44488436556 0.077718361745 0.89220948074 -0.47085291252 -0.031713820085 0.8816415192 -0.49567122398 -0.12325757005 0.85971949445 
-0.51674358375 -0.21044288135 0.82987340139 -0.52910824464 -0.30619915565 0.79138267768 -0.52524579223 -0.42170770769 0.73910720942 
-0.49341779191 -0.56498271925 0.66131188525 -0.42169662387 -0.72610919739 0.54308138514 -0.31360382477 -0.86827478904 0.38438461442 
-0.20391818663 -0.95395767254 0.21995938754 -0.13184992304 -0.98711944854 0.090613421254 -0.11105829679 -0.99377116265 0.0092158018973 
-0.13619210875 -0.99018058239 -0.031529728294 -0.19620667198 -0.97959013488 -0.043659014071 -0.27996995996 -0.95926188101 -0.037861129901 
-0.3763853565 -0.92615395296 -0.023935722635 -0.47578557145 -0.87950459594 -0.0099877786922 -0.57057907009 -0.82124030895 -0.001969705284 
-0.65585887302 -0.75487870808 -0.0026971782929 -0.72874060442 -0.68468092499 -0.012213207232 -0.78790398701 -0.61514638728 -0.028323655837 
-0.83327669535 -0.55080727136 -0.047553115574 -0.86559314599 -0.49629929047 -0.066599698929 -0.8864041139 -0.45550441995 -0.082483151412 
-0.89771524549 -0.43076705167 -0.092450447368 -0.89771524549 -0.43076705167 -0.092450447368 
FrenetBinormal 3 128 double
0.17141905871 0.59253855203 0.78709184386 0.17141905871 0.59253855203 0.78709184386 0.1715865607 0.59368266146 0.78619269246 
0.17178348867 0.59547710034 0.78479134551 0.17192350194 0.59789980321 0.782916429 0.17190106928 0.60090170736 0.78061972847 
0.17161118345 0.60435850225 0.77801054136 0.17098588388 0.60805679971 0.77526173376 0.17007235534 0.61156070523 0.77270233452 
0.16918466875 0.61405392534 0.77091784558 0.16918641598 0.61405005569 0.77092054438 0.17209039789 0.60869170597 0.77451875512 
0.18224540315 0.59228242598 0.78484911983 0.20903245527 0.55217140543 0.80710109136 0.27257866672 0.45660730186 0.84688289766 
0.40656103444 0.22434927563 0.88564977717 0.57994961639 -0.22855770313 0.78193338513 0.62024982823 -0.61445928574 0.48757557029 
0.58901785855 -0.7566034015 0.28391769081 0.57112497545 -0.79555751283 0.20224862472 0.56829124987 -0.80114954762 0.18762850974 
0.57075681531 -0.79425702556 0.20830850948 0.57118915735 -0.78221927662 0.24874876845 0.56463033964 -0.76873992968 0.30038558566 