# vtk DataFile Version 4.2
vtk output
ASCII
DATASET POLYDATA
POINTS 128 float
0 0 0 -0.322092 0.0875817 0.0252846 -0.960381 0.245373 0.0784671 
-1.50466 0.341842 0.130805 -1.9641 0.378297 0.180555 -2.45295 0.388063 0.232479 
-2.96352 0.360545 0.282407 -3.46193 0.276934 0.323899 -3.94174 0.134077 0.350873 
-4.40332 -0.0657272 0.358035 -4.84098 -0.316031 0.34341 -5.24907 -0.608437 0.306913 
-5.63163 -0.931061 0.252914 -5.99596 -1.27156 0.18703 -6.34997 -1.62118 0.113887 
-6.70135 -1.97272 0.0372759 -7.05518 -2.32117 -0.0418715 -7.41517 -2.66258 -0.124097 
-7.78224 -2.99477 -0.212735 -8.15597 -3.31632 -0.312505 -8.53399 -3.62651 -0.430339 
-8.91265 -3.92492 -0.574387 -9.28478 -4.21155 -0.755148 -9.64053 -4.48649 -0.983879 
-9.96133 -4.74913 -1.27035 -10.2252 -4.99851 -1.62149 -10.4131 -5.23317 -2.02766 
-10.5095 -5.45195 -2.47146 -10.5178 -5.65776 -2.93288 -10.4499 -5.85547 -3.39181 
-10.3192 -6.05066 -3.83741 -10.1393 -6.24925 -4.26352 -9.9193 -6.45723 -4.66573 
-9.66615 -6.68045 -5.04036 -9.38716 -6.92296 -5.38195 -9.08912 -7.1888 -5.68361 
-8.77247 -7.49131 -5.9334 -8.43765 -7.84612 -6.11215 -8.12089 -8.23976 -6.15569 
-7.87695 -8.63968 -5.98399 -7.73622 -8.98953 -5.62745 -7.70978 -9.22666 -5.17973 
-7.76799 -9.3639 -4.69566 -7.86205 -9.45253 -4.20614 -7.97249 -9.51565 -3.72056 
-8.09669 -9.56002 -3.23614 -8.23007 -9.59427 -2.75215 -8.36691 -9.62805 -2.26912 
-8.50333 -9.66898 -1.78691 -8.63663 -9.72326 -1.30503 -8.76365 -9.79683 -0.8239 
-8.88093 -9.89525 -0.344629 -8.98508 -10.0224 0.130947 -9.07277 -10.1806 0.600476 
-9.14151 -10.3704 1.06149 -9.18948 -10.5905 1.51149 -9.21598 -10.8387 1.94845 
-9.2212 -11.1123 2.37076 -9.20591 -11.4085 2.77718 -9.17131 -11.725 3.16679 
-9.11846 -12.0597 3.53873 -9.04827 -12.4108 3.89219 -8.96141 -12.7766 4.22644 
-8.85836 -13.1556 4.54081 -8.73925 -13.546 4.83486 -8.60386 -13.946 5.10837 
-8.45163 -14.3532 5.36145 -8.28159 -14.7653 5.59454 -8.09249 -15.1795 5.80847 
-7.88275 -15.5927 6.00449 -7.65068 -16.0013 6.18415 -7.39441 -16.4015 6.34936 
-7.11242 -16.7891 6.50221 -6.80357 -17.1598 6.64499 -6.46757 -17.5093 6.78 
-6.10513 -17.8334 6.90953 -5.71784 -18.129 7.03557 -5.30828 -18.3937 7.15983 
-4.87944 -18.6262 7.28358 -4.43473 -18.8263 7.40763 -3.97741 -18.9949 7.53248 
-3.51048 -19.1337 7.6583 -3.03653 -19.2448 7.78519 -2.55764 -19.3305 7.91318 
-2.07555 -19.3928 8.04245 -1.5916 -19.4337 8.17335 -1.107 -19.4543 8.30648 
-0.622837 -19.4557 8.44277 -0.140238 -19.4383 8.58341 0.339594 -19.4024 8.72993 
0.815337 -19.3484 8.88405 1.28548 -19.2765 9.04774 1.74859 -19.1878 9.22289 
2.20332 -19.084 9.41117 2.6487 -18.9679 9.61398 3.08431 -18.843 9.8323 
3.51014 -18.7139 10.0667 3.92686 -18.5855 10.3174 4.3354 -18.4633 10.5842 
4.737 -18.3533 10.8664 5.13276 -18.2619 11.1632 5.52334 -18.1954 11.4733 
5.90879 -18.1609 11.795 6.28787 -18.1659 12.1262 6.658 -18.2181 12.4637 
7.01393 -18.3258 12.8036 7.34828 -18.4958 13.1407 7.64953 -18.7318 13.469 
7.90579 -19.0335 13.7821 8.10585 -19.3927 14.0743 8.24203 -19.7982 14.3414 
8.31564 -20.2347 14.5831 8.33194 -20.6882 14.8011 8.30299 -21.1497 15.0007 
8.24178 -21.6125 15.1879 8.16075 -22.0748 15.3687 8.07205 -22.5356 15.5494 
7.98739 -22.995 15.7359 7.91788 -23.4524 15.9337 7.8731 -23.9058 16.1467 
7.86515 -24.3514 16.3796 7.91558 -24.7804 16.6421 8.03685 -25.1818 16.9363 
8.20326 -25.5383 17.2362 8.40496 -25.8407 17.5311 8.72346 -26.1148 17.8925 
9.15913 -26.3606 18.3218 9.38994 -26.471 18.5393 
LINES 1 129
128 0 1 2 3 4 5 6 7 8 9 10 11 12 13 14 15 16 17 18 19 20 21 22 23 24 25 26 27 28 29 30 31 32 33 34 35 36 37 38 39 40 41 42 43 44 45 46 47 48 49 50 51 52 53 54 55 56 57 58 59 60 61 62 63 64 65 66 67 68 69 70 71 72 73 74 75 76 77 78 79 80 81 82 83 84 85 86 87 88 89 90 91 92 93 94 95 96 97 98 99 100 101 102 103 104 105 106 107 108 109 110 111 112 113 114 115 116 117 118 119 120 121 122 123 124 125 126 127 

CELL_DATA 1
FIELD FieldData 2
Length 1 1 double
58.397223277 
Tortuosity 1 1 double
0.73522475099 
POINT_DATA 128
SCALARS MaximumInscribedSphereRadius float
LOOKUP_TABLE default
1.23 1.13943 1.04886 0.980006 0.913099 0.980294 1.04973 1.08646 1.12132 
1.03951 0.949298 1.1359 1.34752 1.62942 1.9191 2.2011 2.48208 2.35672 
2.16798 1.9777 1.78715 1.73243 1.70551 1.78913 1.89811 2.00649 2.11471 
2.03167 1.89637 1.86902 1.87368 1.93241 2.00865 2.03575 2.04548 2.01101 
1.95955 1.94698 1.95062 2.08302 2.27392 2.2617 2.17376 2.27886 2.4635 
2.65688 2.85418 3.00603 3.13584 3.11406 3.01274 2.84789 2.64706 2.61621 
2.68888 2.75975 2.82943 2.86161 2.86748 2.7624 2.57381 2.40285 2.2461 
2.20886 2.27496 2.36927 2.48972 2.6103 2.73103 2.81676 2.86527 2.88727 
2.87906 2.87353 2.87128 2.87317 2.88048 2.89676 2.92563 2.91999 2.86247 
2.76983 2.62049 2.50851 2.4615 2.42016 2.38944 2.34018 2.25335 2.18725 
2.16666 2.18136 2.28014 2.41942 2.66375 2.9254 3.23609 3.49755 3.60603 
3.68257 3.64968 3.57634 3.34972 3.12854 2.93025 2.75711 2.70187 2.7012 
2.98569 3.25362 3.42506 3.55705 3.42896 3.3016 3.17986 3.06761 3.04261 
3.03618 3.24214 3.43889 3.49922 3.55142 3.44511 3.34011 3.30878 3.28 
3.28 3.28 
TEXTURE_COORDINATES TCoords 2 float
0 0 0.00787402 0 0.015748 0 0.023622 0 0.0314961 
0 0.0393701 0 0.0472441 0 0.0551181 0 0.0629921 0 
0.0708661 0 0.0787402 0 0.0866142 0 0.0944882 0 0.102362 
0 0.110236 0 0.11811 0 0.125984 0 0.133858 0 
0.141732 0 0.149606 0 0.15748 0 0.165354 0 0.173228 
0 0.181102 0 0.188976 0 0.19685 0 0.204724 0 
0.212598 0 0.220472 0 0.228346 0 0.23622 0 0.244094 
0 0.251969 0 0.259843 0 0.267717 0 0.275591 0 
0.283465 0 0.291339 0 0.299213 0 0.307087 0 0.314961 
0 0.322835 0 0.330709 0 0.338583 0 0.346457 0 
0.354331 0 0.362205 0 0.370079 0 0.377953 0 0.385827 
0 0.393701 0 0.401575 0 0.409449 0 0.417323 0 
0.425197 0 0.433071 0 0.440945 0 0.448819 0 0.456693 
0 0.464567 0 0.472441 0 0.480315 0 0.488189 0 
0.496063 0 0.503937 0 0.511811 0 0.519685 0 0.527559 
0 0.535433 0 0.543307 0 0.551181 0 0.559055 0 
0.566929 0 0.574803 0 0.582677 0 0.590551 0 0.598425 
0 0.606299 0 0.614173 0 0.622047 0 0.629921 0 
0.637795 0 0.645669 0 0.653543 0 0.661417 0 0.669291 
0 0.677165 0 0.685039 0 0.692913 0 0.700787 0 
0.708661 0 0.716535 0 0.724409 0 0.732283 0 0.740157 
0 0.748031 0 0.755906 0 0.76378 0 0.771654 0 
0.779528 0 0.787402 0 0.795276 0 0.80315 0 0.811024 
0 0.818898 0 0.826772 0 0.834646 0 0.84252 0 
0.850394 0 0.858268 0 0.866142 0 0.874016 0 0.88189 
0 0.889764 0 0.897638 0 0.905512 0 0.913386 0 
0.92126 0 0.929134 0 0.937008 0 0.944882 0 0.952756 
0 0.96063 0 0.968504 0 0.976378 0 0.984252 0 
0.992126 0 1 0 
FIELD FieldData 7
Curvature 1 128 double
0 0.032674572401 0.061222102325 0.088123818002 0.11234539263 0.13259308442 0.14745809514 0.15573388907 0.15681926483 
0.1510282594 0.13962485366 0.12463338417 0.10845212322 0.093673429508 0.082865152167 0.078260263422 0.08089136072 0.090240966583 
0.10507842148 0.12441507303 0.14755906171 0.17367308254 0.20132882452 0.2281902213 0.25109067304 0.26681770648 0.27321954293 
0.27046083117 0.26133860945 0.25066451274 0.24427031751 0.24833244812 0.26884779138 0.31184089824 0.38387829684 0.49117417036 
0.63275570934 0.78336901274 0.88020300614 0.85891080906 0.72645139284 0.55302304461 0.396529394 0.27557827808 0.18669508986 
0.12109689637 0.071374472447 0.0331757688 0.0150867375 0.034755526948 0.057458231454 0.077356810589 0.094000217389 0.10729180698 
0.11726383068 0.12409576047 0.12813647392 0.12983145803 0.12971948984 0.12826266321 0.12593231901 0.12310413034 0.12006675415 
0.11707064625 0.11433981194 0.11209104339 0.11052560416 0.109862433 0.11022130838 0.11167380079 0.11410704618 0.11728074635 
0.12081622459 0.12426967833 0.12713245054 0.12902743253 0.12961767064 0.12876772572 0.12647795944 0.12288811429 0.11826464 
0.1129385676 0.10726046999 0.10148148758 0.09591411804 0.090665675289 0.085827442503 0.081364508259 0.077232289355 0.073281783362 
0.069420412046 0.065628090541 0.06207907163 0.059290533253 0.058159789251 0.059828422138 0.065397199898 0.075246638037 0.089255000612 
0.10692595991 0.1277084244 0.15110984676 0.17635791332 0.20232314679 0.22721798296 0.24855420351 0.26327388555 0.26838726269 
0.26198144906 0.2439890949 0.21616845117 0.18139479932 0.14274888834 0.10261324284 0.062533708738 0.023555143103 0.016076401504 
0.051798230991 0.085183471043 0.11394496726 0.13532602255 0.14651902511 0.14537428212 0.13160957218 0.10669138957 0.073619930002 
0.035602683832 0 
Torsion 1 128 double
0 0 -0.021461193505 -0.028412444621 -0.034916302256 -0.041006141281 -0.047165841437 -0.054393443914 -0.064348529831 
-0.079668391071 -0.10436951661 -0.14421870307 -0.20575731379 -0.28969892493 -0.37323279324 -0.39790012931 -0.32435089437 -0.19436199487 
-0.070991937972 0.0201700202 0.080147811105 0.11797606094 0.14270269611 0.16130533252 0.17941307088 0.20134254402 0.23098401745 
0.27168630794 0.32531328874 0.38948052976 0.45260515677 0.49241650999 0.48810781618 0.43901847539 0.36426151394 0.28455472574 
0.21284016168 0.15511853977 0.11333671053 0.085735232453 0.068163893694 0.057811741768 0.054425049323 0.059732813959 0.079674762092 
0.13082325068 0.28298336384 1.0397499013 4.1386251713 0.66097421502 0.21089600583 0.10466636399 0.065705824592 0.04799950654 
0.039225050893 0.03483848443 0.033636419091 0.035123637502 0.039089329403 0.046336644453 0.057135517232 0.071582529568 0.090072362838 
0.11176339107 0.13595642034 0.16116954822 0.18466998627 0.20370319561 0.21612095457 0.22023972571 0.21573029678 0.20457675357 
0.18898475537 0.17115961737 0.15347994521 0.13697137298 0.122567378 0.11096663249 0.10226613463 0.096853036684 0.094997852532 
0.096898138727 0.10256985843 0.11209912048 0.12513666047 0.14118094816 0.15982825668 0.18070262599 0.20438732353 0.23287812841 
0.26850548223 0.31586407895 0.37813253695 0.45158849225 0.51867815035 0.54700837985 0.51199851459 0.4295195405 0.33453637137 
0.24943507976 0.18088640043 0.12741985856 0.085651563147 0.052875853596 0.027267578506 0.0073922790095 -0.0078287502839 -0.019205579305 
-0.027425198822 -0.033261561123 -0.037905629664 -0.042646352896 -0.05016881098 -0.068838474165 -0.13710110964 -0.80071775665 -1.6114382406 
-0.15683042645 -0.058268789463 -0.031130470693 -0.019008067729 -0.012147954486 -0.0080621346464 -0.0055119775347 -0.003696671038 -0.0021247285117 
0 0 
Abscissas 1 128 double
0 0.50288315727 1.0057663145 1.5086435974 2.0115203518 2.5144033759 3.0172865047 3.5201688239 4.0230510968 
4.525930395 5.0288094789 5.5316914445 6.0345736704 6.5374576111 7.0403417419 7.5432207051 8.0460989813 8.5489790082 
9.0518593082 9.554742795 10.057626855 10.560508496 11.063389643 11.566269423 12.069148889 12.572028532 13.074908219 
13.577786896 14.080665296 14.583541537 15.086417138 15.589299462 16.092183964 16.595067314 17.097950257 17.600829545 
18.103707429 18.606588927 19.109471929 19.612355558 20.115239471 20.618120873 21.12100134 21.623882096 22.126762972 
22.629644602 23.132526569 23.635409182 24.138292109 24.641172728 25.144052135 25.646935518 26.149821152 26.652699486 
27.155573375 27.658456249 28.161344998 28.664218225 29.167080563 29.669969836 30.172879386 30.675771022 31.178648208 
31.681529483 32.184414294 32.687284922 33.190142412 33.693015377 34.19590371 34.698797326 35.201696562 35.704575289 
36.207430646 36.710304684 37.213201535 37.716090907 38.218970499 38.721847876 39.22472215 39.727600655 40.230485522 
40.73337038 41.236255225 41.739138412 42.242018714 42.744898889 43.247778822 43.75065917 44.253540355 44.756423329 
45.259310226 45.76219329 46.265067218 46.767942787 47.270822614 47.77370594 48.276599181 48.779485605 49.282350845 
49.785222146 50.288114201 50.791003053 51.293879772 51.796758431 52.299645258 52.802531178 53.305412846 53.808295606 
54.311184069 54.814068748 55.316931379 55.819802135 56.322726457 56.825644951 57.328518824 57.831391908 58.334257731 
58.83712631 59.340026412 59.84292222 60.345754466 60.848590607 61.351502574 61.854413921 62.35729046 62.860167544 
63.363050776 63.865934008 
ParallelTransportNormals 3 128 double
0.081793765926 0 0.99664927625 0.09123507342 -0.0017909337221 0.99577716543 0.10067638091 -0.0035818674442 0.99490505461 
0.10130340885 -0.0037216259099 0.99484860298 0.10113751733 -0.0037128471097 0.99486552683 0.086095191354 -0.0056481238322 0.99614633572 
0.070804170203 -0.0076159000908 0.99744827348 0.039138246199 -0.019112389679 0.99844007649 0.0065349614706 -0.031154338481 0.99941412622 
-0.025668821303 -0.05120219263 0.99761719865 -0.057843818787 -0.071826895776 0.99562061401 -0.075975825406 -0.087045708771 0.99304484733 
-0.092838947787 -0.10177606109 0.99041674742 -0.099526844187 -0.10814176687 0.98910948144 -0.10508686104 -0.11358028795 0.98794862415 
-0.11101475249 -0.11925502065 0.98660208749 -0.11699153912 -0.12496114886 0.98523087171 -0.13435889959 -0.14024546236 0.98061549494 
-0.15350259046 -0.15702346897 0.9754941997 -0.19399015972 -0.18983631028 0.96064847208 -0.23831572424 -0.22553248979 0.9440541248 
-0.30983130961 -0.28212688012 0.90146872826 -0.38690803466 -0.3429955544 0.85356741613 -0.47259348583 -0.42099664989 0.75775186265 
-0.56025448256 -0.50292932343 0.65094086506 -0.60933912778 -0.57745385275 0.52004785079 -0.64865838824 -0.65010305234 0.38305861047 
-0.65056226221 -0.69859525046 0.28025804376 -0.6422421588 -0.74048640395 0.18679973589 -0.6285923076 -0.764658715 0.13431398338 
-0.61336235502 -0.78357795061 0.093975295469 -0.60679322088 -0.79082250146 0.079646993633 -0.60302950582 -0.79428537928 0.073743996421 
-0.61400607899 -0.78429021938 0.08464455595 -0.63019533543 -0.769535825 0.1014874429 -0.67481983451 -0.72214764918 0.1269153997 
-0.73038128942 -0.66220764708 0.15564540427 -0.81095186193 -0.54509115022 0.13074595898 -0.90193135215 -0.40417751512 0.083525672974 
-0.94242773718 -0.3097082451 -0.0079041126382 -0.95998729116 -0.23634081798 -0.11942033745 -0.96002157669 -0.20888911556 -0.18118016625 
-0.95352367539 -0.19855156419 -0.22439431201 -0.94872963617 -0.1942580339 -0.24879759146 -0.94463762437 -0.19245476888 -0.26545039379 
-0.94232470396 -0.19159696282 -0.27438112582 -0.94080792037 -0.19116224614 -0.27985625996 -0.94063421696 -0.19115573511 -0.28047060977 
-0.94111176182 -0.1913568574 -0.27872800621 -0.94267403713 -0.19259244541 -0.27239434357 -0.94480548144 -0.19437082803 -0.26365170595 
-0.94747394841 -0.19834674626 -0.25039979656 -0.95044642431 -0.20356669104 -0.23459518507 -0.95294334052 -0.2115009775 -0.21618403602 
-0.95515062344 -0.22108839754 -0.19618541005 -0.95623407874 -0.23244473113 -0.17641853215 -0.95658250466 -0.24495800675 -0.156803227 
-0.95591694934 -0.25790936357 -0.13902462706 -0.95453997114 -0.27116808406 -0.1225346842 -0.95242489536 -0.28459142081 -0.10761759715 
-0.94975422723 -0.29813867007 -0.093884454692 -0.94635115562 -0.31233799627 -0.080954720964 -0.94235727876 -0.32706333099 -0.068673070031 
-0.93718657854 -0.34365330489 -0.056264769193 -0.93099838122 -0.36185547059 -0.043746965166 -0.92270232068 -0.38338919408 -0.03044944311 
-0.91245356409 -0.40800922776 -0.016429600797 -0.89869495154 -0.43711205922 -0.0013824868202 -0.88145128365 -0.47066601304 0.014684640125 
-0.85901833905 -0.50881035384 0.031685284961 -0.83106541624 -0.55183761719 0.04967893879 -0.79684769993 -0.59761369015 0.068219329813 
-0.75549194071 -0.64652172923 0.087382667715 -0.70853916745 -0.69477450248 0.10662162939 -0.65475161579 -0.74222709964 0.12595293884 
-0.5980322915 -0.78586327913 0.14491690467 -0.53747906702 -0.82450870173 0.16340049261 -0.47733279914 -0.85809299474 0.181137242 
-0.41775681216 -0.88458496996 0.19782742337 -0.36091676393 -0.90667336562 0.21354203414 -0.30818965111 -0.92214186225 0.22779007008 
-0.25874500349 -0.93465006265 0.24111646977 -0.21460182668 -0.94237712356 0.25295434564 -0.1730913627 -0.94835614544 0.26414166452 
-0.13615807053 -0.95129606833 0.27419794054 -0.10088402271 -0.95317796795 0.2839449049 -0.06872156523 -0.95307575053 0.29311181538 
-0.037719923805 -0.95223375259 0.30219732308 -0.0090710496218 -0.94989235138 0.31111784186 0.018004648034 -0.94710381046 0.31988595823 
0.041626917063 -0.94333371086 0.32831952165 0.062519677955 -0.93969111652 0.33606815774 0.076908339987 -0.93635235229 0.34218469206 
0.0874440296 -0.93389971695 0.34667660822 0.087983987441 -0.93374595782 0.34695379205 0.084324191752 -0.9348423 0.34466905274 
0.068762783881 -0.93948128362 0.33512412171 0.049031215465 -0.94500794508 0.32222652523 0.016340574579 -0.95329312893 0.29891028078 
-0.020405237797 -0.96127652161 0.27166807524 -0.071039885891 -0.96822628894 0.23097957552 -0.12575378301 -0.97279695065 0.18582352729 
-0.19592362396 -0.96835337411 0.12374029998 -0.26951174117 -0.95834221358 0.05708896142 -0.35749317435 -0.92488765947 -0.028797296675 
-0.44548304791 -0.88312417672 -0.11727276768 -0.53351251981 -0.80237905012 -0.21789562617 -0.61641673278 -0.71561199177 -0.31686334164 
-0.67253425572 -0.59737186622 -0.40718060577 -0.72249175639 -0.48053334143 -0.49282137318 -0.73656486719 -0.37185965531 -0.55121983132 
-0.74816407712 -0.26929228147 -0.60546210194 -0.74345270095 -0.2069842136 -0.6323023633 -0.73903687878 -0.15040150865 -0.65662887726 
-0.7368838921 -0.13765361705 -0.6617095112 -0.7354389817 -0.12927708392 -0.66497172773 -0.74050454653 -0.16109342584 -0.65151433083 
-0.74544589064 -0.1965522879 -0.63601445557 -0.7489663057 -0.27367700497 -0.59715119341 -0.75082335065 -0.35328187794 -0.55586606574 
-0.72805773755 -0.46960018612 -0.47873036818 -0.70366746959 -0.58486981258 -0.40106790122 -0.64764556929 -0.67972186277 -0.3131493629 
-0.59117969554 -0.77405261301 -0.22519566537 -0.50978708194 -0.83911515264 -0.13526796604 -0.43502759229 -0.89887539431 -0.052668960911 
-0.43502759229 -0.89887539431 -0.052668960911 -0.43502759229 -0.89887539431 -0.052668960911 
FrenetTangent 3 128 double
-0.99600122703 0.041226637097 0.079258565092 -0.99600122703 0.041226637097 0.079258565092 -0.99694609329 0.018709231416 0.075818544773 
-0.99740708532 -0.016886530777 0.069956781153 -0.99604742529 -0.064210984016 0.061371622908 -0.99137068459 -0.121253501 0.049817208133 
-0.98204974439 -0.18530533817 0.035216916276 -0.96728443906 -0.2530730993 0.017743178239 -0.94708227679 -0.32098353302 -0.0021754365819 
-0.92234278394 -0.38563031417 -0.02393845643 -0.89468704465 -0.44422135414 -0.046930594049 -0.86608175813 -0.49487757126 -0.070700620275 
-0.83839789694 -0.53669737821 -0.095104629933 -0.81304098188 -0.56962540205 -0.12037966243 -0.79072630897 -0.5942227885 -0.147143406 
-0.77140156607 -0.61142976677 -0.17633282217 -0.75427135068 -0.62237625646 -0.20909931836 -0.73787820773 -0.62824345056 -0.24666965235 
-0.72020584066 -0.63016025483 -0.29017512009 -0.69878948349 -0.62911837659 -0.34044577541 -0.67084085136 -0.62590290054 -0.39776640286 
-0.63343838513 -0.62103942756 -0.46159055629 -0.58383546443 -0.61479425167 -0.53024916651 -0.51993934113 -0.60725974936 -0.60074843184 
-0.44094788554 -0.59853738322 -0.66881833342 -0.34793035426 -0.58900699074 -0.72939374377 -0.24402685964 -0.57957207835 -0.77752626822 
-0.13398652866 -0.5717463388 -0.80941567455 -0.023106222073 -0.56750024555 -0.82304894982 0.083922152673 -0.56893686708 -0.818087962 
0.18373778874 -0.57796344683 -0.79510922465 0.27442179213 -0.59606709738 -0.75458378953 0.35507498978 -0.62418339386 -0.69592876249 
0.42505569596 -0.66250442737 -0.61677835488 0.48298985209 -0.70996243794 -0.51251745287 0.52548716645 -0.76300079448 -0.37642134042 
0.54574205595 -0.81333606752 -0.20161857463 0.53340464794 -0.84576235957 0.012865174018 0.4792234745 -0.84071669693 0.25207200756 
0.38536466527 -0.78688665218 0.48197870428 0.27003109961 -0.69399213885 0.66742648768 0.15614141826 -0.5861570395 0.79500929714 
0.05805853703 -0.48434257811 0.87294986873 -0.01996696705 -0.39908034856 0.91669853039 -0.079111526835 -0.33323520379 0.93951884775 
-0.12217514833 -0.28618890891 0.95035211451 -0.15188998336 -0.25622906114 0.95460782586 -0.17044873802 -0.24150072266 0.95531389012 
-0.17949539323 -0.24025939183 0.95396898715 -0.18025235809 -0.25084747227 0.95109654245 -0.17367240397 -0.27161712653 0.94660553172 
-0.16057378303 -0.30085658999 0.94005391998 -0.14173258466 -0.33676651374 0.93085991947 -0.11794254969 -0.37750062448 0.91846765511 
-0.090037402897 -0.42123676333 0.90247041796 -0.058872603308 -0.46626662738 0.88268309646 -0.025286219553 -0.51108861473 0.85915600155 
0.0099634518973 -0.55446074778 0.83215023211 0.046250313382 -0.59542238781 0.80208047514 0.08310202859 -0.633272379 0.76945444754 
0.12022372033 -0.66751486336 0.73482662191 0.15749433838 -0.69780721625 0.69875648286 0.19493579277 -0.72389949306 0.66179268706 
0.23268890148 -0.74558134019 0.62447124857 0.27096847771 -0.76265768186 0.5873068571 0.31002669378 -0.77492375813 0.55079634914 
0.35011037176 -0.78215532445 0.51541805945 0.39141241682 -0.78411854304 0.48161647649 0.43403047399 -0.78058053586 0.44979058981 
0.47793384972 -0.77132285211 0.42028596587 0.52293563191 -0.75616899221 0.39337867266 0.5686679646 -0.73502595632 0.36926086928 
0.61459117339 -0.70791551221 0.34804211982 0.66001670059 -0.6750151904 0.3297460351 0.70414667192 -0.63669797152 0.31431378826 
0.74614550337 -0.59354076838 0.30162268495 0.7852198447 -0.54631509845 0.29149546943 0.82069071234 -0.49595114444 0.28372383934 
0.85205677138 -0.44346520673 0.27809686941 0.87902277626 -0.38988922624 0.2744182029 0.90150121113 -0.33618982427 0.27252883954 
0.91958558046 -0.2832014512 0.27232204876 0.93350305582 -0.23158700035 0.27375081014 0.94355708961 -0.18184535843 0.27682536783 
0.95008144075 -0.13431956268 0.28160879073 0.95340201011 -0.089237946685 0.28820339343 0.9538151966 -0.046780270171 0.2967291308 
0.95158437945 -0.0071269121915 0.30730502096 0.94695033171 0.029496091978 0.32002351451 0.94014832804 0.06277493258 0.33493346969 
0.93143010575 0.092278126106 0.35202656936 0.92108455638 0.11746138957 0.37122238881 0.90944469942 0.13766774113 0.39237473383 
0.89687840704 0.15215585697 0.41528028869 0.8837606888 0.16013854045 0.43968476525 0.87042958827 0.16080720662 0.46528848489 
0.85711746415 0.15334875751 0.49176601267 0.84387906169 0.13697358967 0.51875462887 0.83051402994 0.11094226691 0.54583720969 
0.81649333468 0.074591090341 0.57251620385 0.80090638681 0.02740991452 0.59816189794 0.78243205869 -0.030869107797 0.62197039456 
0.75937169631 -0.10011031611 0.64290944265 0.72976786822 -0.17952555478 0.65970405008 0.69165738179 -0.26741333291 0.67089505557 
0.64348935509 -0.36094600729 0.67501068859 0.58466266566 -0.45615547329 0.67088877734 0.51604741744 -0.54826631371 0.65810266084 
0.44022880861 -0.63246061322 0.63733207105 0.36125299864 -0.70486263668 0.61046288535 0.28390892877 -0.7633039402 0.58031268731 
0.21284448613 -0.80752400023 0.55009291376 0.15188019266 -0.8388058406 0.52281657285 0.10372570366 -0.85926988694 0.50089543799 
0.07004390454 -0.87115678575 0.48598323641 0.051665977193 -0.87630520372 0.47897788752 0.048797039702 -0.87586650449 0.48007990505 
0.06110223352 -0.87022773717 0.48884578602 0.087619704609 -0.85913367581 0.50419452045 0.12655701147 -0.84200238826 0.52441901283 
0.17506806278 -0.81843596902 0.54727848305 0.22920962001 -0.78882516251 0.57027871527 0.28425450628 -0.75483155535 0.5911249434 
0.33537349733 -0.7194680042 0.60818616247 0.3783974063 -0.68664048942 0.62075779591 0.41031926819 -0.66032907573 0.62897027744 
0.42937613928 -0.64377307247 0.63339747567 0.42937613928 -0.64377307247 0.63339747567 
FrenetNormal 3 128 double
-0.052442951328 -0.98802651941 -0.14509766989 -0.052442951328 -0.98802651941 -0.14509766989 -0.030274994785 -0.98754455525 -0.15439940443 
0.0048700942688 -0.98569034075 -0.16849579914 0.051751786802 -0.98108122074 -0.18655130894 0.10846759004 -0.97216245663 -0.20768952749 
0.17238834474 -0.95752397147 -0.23114952446 0.24023455699 -0.93620028778 -0.25654703037 0.3083312066 -0.90782444272 -0.28422992142 
0.37297863547 -0.87248651083 -0.31568057574 0.43074100077 -0.83013441909 -0.35403253595 0.47839637985 -0.77945528547 -0.40445810871 
0.51220251515 -0.71610899249 -0.47416926762 0.52650591811 -0.63111303377 -0.56963835616 0.51347161509 -0.51292223877 -0.68793726274 
0.47064788182 -0.36169252698 -0.80477890583 0.41534872873 -0.20566510546 -0.88610794937 0.37804469084 -0.081948671133 -0.92215325572 
0.37588929272 -0.0028944552553 -0.92666005727 0.40801548622 0.040370052127 -0.91208202586 0.46590519298 0.061599548435 -0.88268785354 
0.54050122548 0.07176136083 -0.83827724074 0.62425195803 0.077638549368 -0.77735561267 0.71089403124 0.082305611623 -0.69846650789 
0.79474046384 0.085899082946 -0.6008401973 0.87049945118 0.085908930307 -0.48461362052 0.93308554102 0.078107209217 -0.35107070087 
0.97772084057 0.056911179257 -0.20204721128 0.9990762885 0.016727994394 -0.03958211662 0.98991396143 -0.046436919703 0.13384304782 
0.94073048395 -0.13119348627 0.31275297876 0.84420979561 -0.22639728519 0.48585398039 0.70422586924 -0.31099233408 0.63823952654 
0.53825503761 -0.36283716552 0.76067779369 0.36571513538 -0.3682585532 0.85477369973 0.19589632312 -0.3220372825 0.92623788482 
0.02829967992 -0.22258158246 0.97450324128 -0.13882334285 -0.072529391407 0.98765761621 -0.29857120316 0.11391721683 0.94756430091 
-0.43422646275 0.30623680653 0.84715193287 -0.53146794343 0.47058365549 0.70433858924 -0.59029342867 0.58995959504 0.5509095609 
-0.62203706515 0.66638187804 0.41110227706 -0.63986092319 0.70961809071 0.2949918038 -0.65537918956 0.72754634692 0.202865549 
-0.6799815299 0.72163173595 0.12989517568 -0.73270151444 0.67741535856 0.06524509731 -0.87048840462 0.49120289294 -0.03113929015 
-0.64837955847 -0.7004030197 -0.29839497006 0.18623599151 -0.95814835116 -0.21741180425 0.36036438069 -0.91207495329 -0.19559343728 
0.43049302608 -0.87839749102 -0.20758998594 0.47197896143 -0.84957494746 -0.23549579322 0.50169358818 -0.82085234315 -0.27295599338 
0.52511980661 -0.79003828277 -0.31636798266 0.5444358177 -0.75613658943 -0.3631075578 0.56054055834 -0.71886228667 -0.41113415726 
0.57455080267 -0.67793191895 -0.45858443979 0.58713194652 -0.63340269235 -0.50406061807 0.59936206168 -0.58510178283 -0.54627925344 
0.61257801408 -0.53259434052 -0.58403034606 0.62796551403 -0.47532545845 -0.61621832311 0.6466443041 -0.41247075802 -0.64165334703 
0.66955366537 -0.34289207954 -0.65888004294 0.69640344958 -0.2658887377 -0.66657738829 0.72661980519 -0.1804789523 -0.66291100947 
0.75780108146 -0.086927722361 -0.64666922923 0.78676107587 0.013696646399 -0.61710567278 0.80947192083 0.11875108991 -0.57502468471 
0.82252536374 0.22506395303 -0.52230091236 0.82333109926 0.32866637202 -0.46271407682 0.81110663736 0.42639292119 -0.40036870456 
0.78653818633 0.51620216081 -0.33895871523 0.75121888316 0.59706796454 -0.28138947262 0.70714415328 0.66885035527 -0.22931713573 
0.65627796838 0.7319650538 -0.18310212513 0.60042781809 0.78683738274 -0.14273530885 0.54111796113 0.83408056037 -0.10724257992 
0.47964296489 0.87420770141 -0.075521659391 0.417051339 0.90770516902 -0.046254802774 0.35409022409 0.93504112632 -0.017838310001 
0.29123338616 0.95658464621 0.011354708703 0.22863548599 0.97255738638 0.043103883164 0.16625239275 0.98291347492 0.079001536187 
0.10379570723 0.98724680028 0.12070711042 0.040970525208 0.98470155506 0.16936429236 -0.02246462649 0.97392543988 0.22575335679 
-0.086592428541 0.95302812416 0.29023980753 -0.15114114305 0.91966123802 0.36246318731 -0.21573388005 0.87047866215 0.44240907736 
-0.27948348206 0.80092315526 0.52953855632 -0.34078327291 0.70436541145 0.62268461363 -0.3965882603 0.57084508553 0.71892533695 
-0.44056932165 0.38979727578 0.80867592805 -0.46259839551 0.1574326676 0.87247789636 -0.45300420041 -0.10835880851 0.88489861737 
-0.41328668298 -0.36512780648 0.83419170615 -0.36020811515 -0.57193508191 0.73698058038 -0.31342730152 -0.71700806902 0.62262569464 
-0.28426520288 -0.81116124113 0.51108779609 -0.2763625973 -0.86927108481 0.40986765661 -0.28887692392 -0.90279898511 0.318597105 
-0.31965285127 -0.91803143517 0.23460677465 -0.36582738579 -0.91769359635 0.15494769125 -0.42395357726 -0.90237088754 0.077396031246 
-0.48988970658 -0.87178400861 0.00084717802301 -0.55900066368 -0.82582729729 -0.074347380977 -0.62643361553 -0.7655682351 -0.14658172713 
-0.68784169397 -0.69379152802 -0.21337085013 -0.7401127063 -0.61497623306 -0.27209817114 -0.78200331688 -0.5345442404 -0.32052030739 
-0.814236987 -0.45779703442 -0.35698740073 -0.83893996865 -0.38907901357 -0.38052233863 -0.85996847324 -0.33049843241 -0.38887660151 
-0.88461313375 -0.27940458452 -0.37335329346 -0.94570147874 -0.19704867882 -0.25849667559 0.63275801891 0.39900478694 0.66363579582 
0.79805119415 0.33674702455 0.49971565212 0.82246560847 0.34795447431 0.44997556232 0.82874646257 0.38027765736 0.41057058356 
0.82633024935 0.4243538865 0.37027300473 0.81685601491 0.47449725375 0.32802226614 0.80187470945 0.5251480223 0.28498509614 
0.78349831051 0.5714831052 0.24400298747 0.76479583387 0.60970110792 0.20821117045 0.74875004571 0.63766291702 0.1809955063 
0.73837014507 0.65408499938 0.16426302828 0.73837014507 0.65408499938 0.16426302828 
FrenetBinormal 3 128 double
0.07232767522 -0.14867401032 0.98623767219 0.07232767522 -0.14867401032 0.98623767219 0.07198549689 -0.1562232891 0.98509510819 
0.071801032951 -0.16771820779 0.9832167688 0.072189189838 -0.18263785981 0.98052645708 0.073613501771 -0.20049375655 0.9769254352 
0.076554282333 -0.22092934551 0.97228065195 0.081536320666 -0.2438914258 0.9663688741 0.089258209864 -0.2698598761 0.95875368017 
0.10085001928 -0.30009423388 0.94856350573 0.1183101111 -0.33696325434 0.93405486072 0.14504927435 -0.38411671067 0.91181964258 
0.18638012204 -0.44625534742 0.87528202027 0.24850730369 -0.52651993309 0.81303190593 0.33331487336 -0.6195240549 0.71069764359 
0.42828751466 -0.70379837754 0.56677830636 0.50848811498 -0.75521497588 0.4136304838 0.5591224931 -0.77368894404 0.29797223962 
0.58310443893 -0.77645970621 0.23895509607 0.58755137713 -0.77626047634 0.22847987244 0.5769791186 -0.77746450384 0.25028791814 
0.55372758419 -0.78048724301 0.29021617115 0.51908153826 -0.78485685559 0.33845837686 0.47359556363 -0.79022869038 0.38890340575 