# vtk DataFile Version 4.2
vtk output
ASCII
DATASET POLYDATA
POINTS 128 float
0 0 0 -0.312437 0.0765091 -0.0969186 -0.935394 0.205732 -0.270574 
-1.4763 0.262444 -0.374994 -1.94058 0.248611 -0.413783 -2.43113 0.197165 -0.427119 
-2.93493 0.103233 -0.411351 -3.41571 -0.0439957 -0.355238 -3.87068 -0.23666 -0.265908 
-4.30592 -0.462478 -0.154742 -4.72292 -0.71433 -0.0275762 -5.1224 -0.98667 0.111383 
-5.5084 -1.27395 0.257626 -5.88582 -1.57092 0.406739 -6.25849 -1.87407 0.555375 
-6.62976 -2.18063 0.700525 -7.00225 -2.48871 0.839071 -7.37814 -2.79699 0.967802 
-7.75835 -3.10528 1.08321 -8.14298 -3.41411 1.18156 -8.53023 -3.72574 1.25841 
-8.917 -4.04344 1.30887 -9.29698 -4.37283 1.32694 -9.66146 -4.72044 1.30611 
-9.9943 -5.09258 1.23962 -10.2765 -5.49409 1.12166 -10.4918 -5.91916 0.954887 
-10.6275 -6.35716 0.746235 -10.6876 -6.79729 0.506399 -10.6844 -7.22951 0.247332 
-10.63 -7.65057 -0.0231144 -10.5363 -8.06055 -0.299502 -10.4126 -8.4596 -0.579744 
-10.2659 -8.84832 -0.862795 -10.0974 -9.23176 -1.14132 -9.90649 -9.61606 -1.40643 
-9.70315 -9.99483 -1.66733 -9.49963 -10.3586 -1.93748 -9.26804 -10.7411 -2.1677 
-8.9659 -11.1874 -2.27228 -8.65473 -11.5867 -2.17273 -8.45218 -11.7475 -1.80925 
-8.36244 -11.6854 -1.27946 -8.32061 -11.5404 -0.766341 -8.2967 -11.367 -0.306345 
-8.28207 -11.1693 0.146764 -8.27099 -10.9547 0.604533 -8.25949 -10.7328 1.05823 
-8.2451 -10.5104 1.50819 -8.22624 -10.2926 1.96042 -8.20099 -10.087 2.41889 
-8.16712 -9.90327 2.8862 -8.12207 -9.75653 3.3654 -8.06321 -9.66587 3.85903 
-7.99113 -9.65468 4.35858 -7.90905 -9.74777 4.84731 -7.82496 -9.94729 5.30519 
-7.75016 -10.2381 5.71092 -7.69175 -10.5989 6.05896 -7.65343 -11.0047 6.35603 
-7.63657 -11.439 6.60999 -7.64066 -11.8919 6.82924 -7.66461 -12.3566 7.02064 
-7.70681 -12.8285 7.18963 -7.76498 -13.3047 7.34067 -7.83618 -13.7835 7.47732 
-7.91673 -14.2638 7.60265 -8.00222 -14.7454 7.71931 -8.08744 -15.2285 7.8297 
-8.16639 -15.7137 7.93602 -8.23218 -16.2012 8.04041 -8.27701 -16.6912 8.145 
-8.2925 -17.1826 8.25201 -8.26979 -17.6729 8.36375 -8.20113 -18.1574 8.48249 
-8.08018 -18.6292 8.61044 -7.90381 -19.0803 8.74955 -7.67264 -19.5013 8.9015 
-7.39042 -19.8844 9.06755 -7.06453 -20.2233 9.24847 -6.70332 -20.5145 9.44472 
-6.31614 -20.7572 9.65643 -5.91146 -20.9527 9.88329 -5.49652 -21.1046 10.1245 
-5.07718 -21.2172 10.3788 -4.65747 -21.2959 10.6449 -4.24016 -21.3464 10.9212 
-3.82633 -21.3739 11.2058 -3.41629 -21.3834 11.4968 -3.00937 -21.3789 11.7923 
-2.6046 -21.3639 12.0903 -2.20068 -21.3405 12.389 -1.79635 -21.3104 12.6864 
-1.39058 -21.2742 12.9812 -0.982656 -21.232 13.2723 -0.572401 -21.1837 13.559 
-0.159964 -21.1294 13.8415 0.254024 -21.0698 14.1207 0.668815 -21.006 14.3977 
1.08354 -20.9404 14.6744 1.49731 -20.8759 14.9528 1.90918 -20.8171 15.2353 
2.31797 -20.769 15.5243 2.72197 -20.7387 15.8224 3.1186 -20.734 16.132 
3.50359 -20.7644 16.4548 3.87104 -20.8391 16.7913 4.2119 -20.9658 17.1397 
4.51725 -21.1488 17.4966 4.77952 -21.3839 17.8569 4.99359 -21.6644 18.2164 
5.16006 -21.9785 18.5734 5.2809 -22.3152 18.9275 5.35925 -22.6659 19.28 
5.39827 -23.0232 19.6322 5.40049 -23.3814 19.9855 5.36802 -23.7358 20.341 
5.30201 -24.0827 20.6998 5.20402 -24.4187 21.0622 5.07743 -24.7393 21.4274 
4.92385 -25.0419 21.7952 4.73812 -25.3299 22.1683 4.52065 -25.6031 22.5454 
4.29534 -25.8444 22.9089 4.06893 -26.0533 23.2548 3.76394 -26.3056 23.6429 
3.37186 -26.6214 24.0693 3.16759 -26.785 24.2791 
LINES 1 129
128 0 1 2 3 4 5 6 7 8 9 10 11 12 13 14 15 16 17 18 19 20 21 22 23 24 25 26 27 28 29 30 31 32 33 34 35 36 37 38 39 40 41 42 43 44 45 46 47 48 49 50 51 52 53 54 55 56 57 58 59 60 61 62 63 64 65 66 67 68 69 70 71 72 73 74 75 76 77 78 79 80 81 82 83 84 85 86 87 88 89 90 91 92 93 94 95 96 97 98 99 100 101 102 103 104 105 106 107 108 109 110 111 112 113 114 115 116 117 118 119 120 121 122 123 124 125 126 127 

CELL_DATA 1
FIELD FieldData 2
Length 1 1 double
57.848171744 
Tortuosity 1 1 double
0.59406450554 
POINT_DATA 128
SCALARS MaximumInscribedSphereRadius float
LOOKUP_TABLE default
1.24 1.24 1.24 1.24 1.24 1.24 1.24 1.27139 1.30456 
1.38284 1.46431 1.50695 1.54604 1.55 1.55 1.55 1.55 1.54066 
1.52985 1.47424 1.41045 1.34671 1.28298 1.28451 1.30125 1.44652 1.62503 
1.78102 1.9307 1.93638 1.89804 1.81107 1.7078 1.57841 1.43944 1.3431 
1.26387 1.24668 1.25625 1.3086 1.38171 1.4618 1.5453 1.63626 1.73034 
1.7657 1.77587 1.72317 1.6403 1.66915 1.7556 1.90868 2.09892 2.05037 
1.85858 1.7129 1.59657 1.55 1.55 1.55 1.55 1.56919 1.60305 
1.65777 1.7296 1.74912 1.72262 1.62846 1.47039 1.35529 1.28377 1.24496 
1.24174 1.24715 1.26262 1.29306 1.34215 1.43419 1.58339 1.70918 1.80171 
1.85896 1.86255 1.86388 1.86151 1.86032 1.8612 1.86364 1.86903 1.88158 
1.9088 1.94884 2.01739 2.07181 2.09204 2.08467 2.00442 1.93399 1.89196 
1.86 1.86 1.86 1.86 1.86 1.86 1.86038 1.86244 1.87108 
1.91176 1.96241 2.0674 2.17881 2.3301 2.47611 2.58399 2.65779 2.43966 
2.22856 2.09081 1.97484 2.15127 2.32217 2.40169 2.48095 2.54311 2.61902 
2.85951 3.1 
TEXTURE_COORDINATES TCoords 2 float
0 0 0.00787402 0 0.015748 0 0.023622 0 0.0314961 
0 0.0393701 0 0.0472441 0 0.0551181 0 0.0629921 0 
0.0708661 0 0.0787402 0 0.0866142 0 0.0944882 0 0.102362 
0 0.110236 0 0.11811 0 0.125984 0 0.133858 0 
0.141732 0 0.149606 0 0.15748 0 0.165354 0 0.173228 
0 0.181102 0 0.188976 0 0.19685 0 0.204724 0 
0.212598 0 0.220472 0 0.228346 0 0.23622 0 0.244094 
0 0.251969 0 0.259843 0 0.267717 0 0.275591 0 
0.283465 0 0.291339 0 0.299213 0 0.307087 0 0.314961 
0 0.322835 0 0.330709 0 0.338583 0 0.346457 0 
0.354331 0 0.362205 0 0.370079 0 0.377953 0 0.385827 
0 0.393701 0 0.401575 0 0.409449 0 0.417323 0 
0.425197 0 0.433071 0 0.440945 0 0.448819 0 0.456693 
0 0.464567 0 0.472441 0 0.480315 0 0.488189 0 
0.496063 0 0.503937 0 0.511811 0 0.519685 0 0.527559 
0 0.535433 0 0.543307 0 0.551181 0 0.559055 0 
0.566929 0 0.574803 0 0.582677 0 0.590551 0 0.598425 
0 0.606299 0 0.614173 0 0.622047 0 0.629921 0 
0.637795 0 0.645669 0 0.653543 0 0.661417 0 0.669291 
0 0.677165 0 0.685039 0 0.692913 0 0.700787 0 
0.708661 0 0.716535 0 0.724409 0 0.732283 0 0.740157 
0 0.748031 0 0.755906 0 0.76378 0 0.771654 0 
0.779528 0 0.787402 0 0.795276 0 0.80315 0 0.811024 
0 0.818898 0 0.826772 0 0.834646 0 0.84252 0 
0.850394 0 0.858268 0 0.866142 0 0.874016 0 0.88189 
0 0.889764 0 0.897638 0 0.905512 0 0.913386 0 
0.92126 0 0.929134 0 0.937008 0 0.944882 0 0.952756 
0 0.96063 0 0.968504 0 0.976378 0 0.984252 0 
0.992126 0 1 0 
FIELD FieldData 7
Curvature 1 128 double
0 0.03940803716 0.072710485212 0.10204585318 0.12552260248 0.14147711186 0.14894184528 0.14801178242 0.13987157966 
0.12646982716 0.1100538388 0.092831205638 0.076911106966 0.06449281836 0.057927392464 0.058780167652 0.066536193825 0.079418870752 
0.096047651198 0.11573561879 0.13805683187 0.16236112451 0.18738137958 0.21105709422 0.23060318679 0.24309981277 0.24645642345 
0.2402643529 0.22611767583 0.20721173172 0.18748583689 0.17137025956 0.16379251493 0.17077042468 0.19969966851 0.2604901396 
0.36907635736 0.55004686305 0.82172392878 1.1275126809 1.2636651467 1.0888380809 0.76527971499 0.48698505415 0.29864714522 
0.17721705514 0.096656128015 0.044559317012 0.042048005185 0.078728679228 0.1214846908 0.16604870607 0.21071551214 0.25238778154 
0.28623126193 0.30698032087 0.311244209 0.29920802406 0.27463789678 0.24287668143 0.20872159232 0.17542993664 0.1446041612 
0.11678174223 0.092050532422 0.070802267176 0.054621719784 0.04742427874 0.052656971843 0.067686122651 0.087838284641 0.11037128523 
0.13368105306 0.156517642 0.17754346466 0.19539533895 0.20871811133 0.21651523151 0.21831450331 0.21424892315 0.20513370652 
0.19213644509 0.17650076329 0.15946670115 0.14201528608 0.12484932895 0.10850363289 0.093298984893 0.079405710477 0.066854072179 
0.055682621802 0.045693639613 0.036599079468 0.028045673278 0.019564588034 0.010986283591 0.0057342589687 0.014034573572 0.027141898615 
0.042606958867 0.060178727789 0.079622067783 0.10057421359 0.12239425929 0.1441053028 0.16439817949 0.18185169183 0.19494257009 
0.20264158182 0.20462678142 0.20141734293 0.19425215783 0.18464716677 0.17411270443 0.1637179596 0.15407045396 0.14525309929 
0.13691913457 0.12853330051 0.11947543834 0.10925764392 0.097526339632 0.084150508736 0.069147078579 0.052702531778 0.035079342191 
0.016675708438 0 
Torsion 1 128 double
0 0 -0.008742822953 -0.012489488079 -0.017026816606 -0.022789477283 -0.030572238775 -0.041741588276 -0.058658500258 
-0.085399972386 -0.12890499377 -0.20014644899 -0.31161386409 -0.45634054517 -0.55610106879 -0.49859064625 -0.32663323692 -0.16163688402 
-0.047252130498 0.022327865073 0.061107066624 0.080380671603 0.088241644169 0.090335040043 0.090775324503 0.092963164879 0.099993419849 
0.11539423879 0.14405570011 0.19225074886 0.26692604352 0.36931462889 0.47851441804 0.54047454531 0.51085233346 0.41330050608 
0.30150893484 0.20491721085 0.13060578026 0.080031101906 0.051166340155 0.037286646169 0.034253564434 0.045862193456 0.085724925236 
0.19426531259 0.54456545674 2.1734386343 2.0619181747 0.47715575397 0.14434202369 0.038016510506 -0.0086671635598 -0.033551584089 
-0.048798872911 -0.059189399259 -0.066491486613 -0.071006129002 -0.072078056591 -0.068350595745 -0.057437041448 -0.03576177058 0.0022697415754 
0.066894484825 0.1793889581 0.38094644337 0.71363471477 0.99075270131 0.81284628514 0.49170825561 0.29420804909 0.19279212579 
0.14102654353 0.11427339285 0.10084600527 0.094653876471 0.092462545593 0.092114146027 0.09238531359 0.092429920655 0.091469156447 
0.088932858206 0.084304144887 0.077373161785 0.067667626074 0.054982538288 0.039276509623 0.020487911648 -0.0003237990771 -0.021324839198 
-0.039584421086 -0.04922865602 -0.041064309706 0.00331337106 0.14799848299 0.81314913518 3.7340082042 0.66226782666 0.16856970176 
0.057482727318 0.018563977249 7.2833908841e-05 -0.01156515066 -0.021164286479 -0.030837443718 -0.041230339872 -0.053093262989 -0.066599853458 
-0.08188016895 -0.098839765206 -0.11677889217 -0.13490098556 -0.15084966723 -0.16222404978 -0.1665655188 -0.16126228449 -0.1468446456 
-0.12485241999 -0.098549750477 -0.071493762084 -0.046467578814 -0.026049864448 -0.010663325944 -0.00081179341266 0.0040347453498 0.0054197798801 
0 0 
Abscissas 1 128 double
0 0.50285177403 1.0057035481 1.5085570227 2.0114106389 2.5142624277 3.0171141869 3.5199663057 4.0228184448 
4.5256677397 5.028516833 5.5313690788 6.0342216133 6.5370750026 7.0399284885 7.5427814098 8.0456342548 8.5484854299 
9.0513363403 9.5541884192 10.057040711 10.559893952 11.06274739 11.565607981 12.068470241 12.571322969 13.074173232 
13.577022652 14.079871836 14.582721552 15.085571429 15.588427878 16.09128653 16.594140355 17.096992409 17.599830202 
18.10266227 18.605521446 19.10839231 19.61124234 20.114082266 20.616930355 21.119782421 21.622630318 22.125476472 
22.628331357 23.131189986 23.634046151 24.136901134 24.639749572 25.142594638 25.645447385 26.148304417 26.651159259 
27.154012788 27.656865497 28.159717684 28.662574194 29.16543359 29.668285777 30.17113282 30.673965985 31.176788542 
31.679638598 32.182511214 32.685364004 33.188199345 33.691051178 34.193918593 34.696790712 35.199667601 35.702530749 
36.205378955 36.708225069 37.211068745 37.713919618 38.216779463 38.719635141 39.222485273 39.725332124 40.228174312 
40.731018082 41.233864255 41.736717764 42.239583244 42.742436335 43.245267667 43.748107848 44.250964806 44.753824825 
45.256691122 45.759548685 46.262386817 46.765226411 47.268069542 47.770921748 48.273797916 48.776666743 49.279514357 
49.782359486 50.285196717 50.788038182 51.290894513 51.793748682 52.296594416 52.799444336 53.302312467 53.805174513 
54.308006975 54.81084617 55.313722089 55.816591529 56.31942071 56.822257298 57.32514741 57.828032363 58.330873125 
58.833714399 59.336561035 59.839407776 60.34225595 60.84510545 61.347976829 61.850847383 62.353664574 62.856485894 
63.359356648 63.862227402 
ParallelTransportNormals 3 128 double
-0.27591417745 0 0.96118227547 -0.20860939595 -0.0083604567717 0.97531739071 -0.14130461446 -0.016720913543 0.98945250594 
-0.068430240726 -0.013521575756 0.99501341242 0.0049074149665 -0.0093606874585 0.99986111118 0.074728051187 0.0082931534559 0.99445351533 
0.14449174526 0.02616545141 0.98887988159 0.18957229584 0.046302056685 0.97953358906 0.23325695323 0.066566714175 0.96997394328 
0.25660731081 0.080988815265 0.96273487351 0.27851600359 0.094996689752 0.95566032834 0.28598496031 0.10044882099 0.95292023586 
0.29213184896 0.10511760862 0.95057699562 0.28787243212 0.10161339406 0.95223437722 0.28243840177 0.097186650474 0.9543433297 
0.26760368435 0.08502228497 0.95952777827 0.25149803584 0.071811827386 0.96512802024 0.22537466841 0.05064921137 0.97227580399 
0.19766390521 0.028226505838 0.97966880936 0.15876140829 -0.00391973849 0.98587132318 0.11781538775 -0.037841425447 0.9918564625 
0.066629105623 -0.085786019913 0.99138925249 0.013317163547 -0.13664147097 0.98958267234 -0.039269900305 -0.2040105733 0.97409054794 
-0.091687903492 -0.2752310934 0.95540659469 -0.12379510104 -0.34786757574 0.92561942619 -0.1506501573 -0.42087020966 0.89296109363 
-0.15834589221 -0.47585561505 0.86329398222 -0.1606784788 -0.52579757098 0.83446418453 -0.15718687011 -0.55871284247 0.81366281111 
-0.15191521302 -0.58642424959 0.79531516444 -0.14710612012 -0.60317639993 0.78375578922 -0.14245214165 -0.61625351659 0.77447276602 
-0.1422518755 -0.61756013021 0.77354322088 -0.14368614448 -0.61454690918 0.7756794448 -0.15033871012 -0.60261029614 0.78349838789 
-0.15908613857 -0.58709142567 0.7935986342 -0.25630638053 -0.44401220144 0.82594137267 -0.39166605312 -0.2459434378 0.86787254801 
-0.60446422638 -0.026431127438 0.65596177368 -0.85481943682 0.20348112707 0.32093973734 -0.94879573118 0.2636023685 0.13019117068 
-0.96657561342 0.24099208621 0.0097405765846 -0.97253952236 0.22745328023 -0.042643230194 -0.97356506732 0.21770580406 -0.066579226471 
-0.9738870559 0.21454387519 -0.074258735823 -0.97390725928 0.21420676701 -0.074965148071 -0.97355892999 0.21805842552 -0.066801939751 
-0.97303379335 0.223919688 -0.054383439584 -0.9714131129 0.23346655818 -0.030376591283 -0.96922765017 0.2449134582 -0.00039563800228 
-0.96418253708 0.25532629801 0.046794630961 -0.95754204985 0.2651622446 0.10358582786 -0.94796140511 0.26105295505 0.16916265841 
-0.93661713868 0.24857876636 0.24000945631 -0.92804784315 0.22800056797 0.29128554118 -0.92124504555 0.20226349883 0.33010325267 
-0.9180250453 0.18698022628 0.34953328085 -0.91719691945 0.17867590506 0.35602009773 -0.91683086477 0.17984181502 0.35638771988 
-0.91679450631 0.18776490805 0.35238918472 -0.91612007824 0.19894805053 0.3478045174 -0.91495796083 0.21262291393 0.34277185755 
-0.9136370605 0.22434824986 0.33888611816 -0.91218589572 0.23447420656 0.3359413046 -0.91164002176 0.23843177813 0.33475497832 
-0.91189082854 0.23696100176 0.33511616903 -0.91360640874 0.22586600505 0.33759427092 -0.91670584778 0.2056784332 0.34207234512 
-0.92004451119 0.17318289612 0.34916583084 -0.92362571531 0.1282087696 0.35891098531 -0.92345744801 0.070863659394 0.37188399501 
-0.9192118889 6.5956873202e-05 0.38836707486 -0.90629572459 -0.077405982085 0.40820618238 -0.88327478372 -0.16265611719 0.43195642516 
-0.85110640465 -0.24448473851 0.45796281514 -0.80753516168 -0.32204822514 0.48678163621 -0.76062914814 -0.38896251678 0.51564789728 
-0.70928539852 -0.44170542365 0.54457728898 -0.66128739364 -0.48376339968 0.57146635285 -0.6180429397 -0.51064049159 0.59545656966 
-0.58069547428 -0.53094645238 0.61654200808 -0.5523154422 -0.54125982454 0.63321020769 -0.52898243444 -0.54872629294 0.64720374076 
-0.51388651045 -0.55154642257 0.65683203783 -0.50159688197 -0.55352087749 0.66480606351 -0.49423541579 -0.55401023499 0.66987500743 
-0.48761017929 -0.55431053254 0.6745013484 -0.48238067366 -0.55425241367 0.67828861072 -0.47651994266 -0.55407496229 0.68255835198 
-0.46936452371 -0.55365275149 0.68781769169 -0.46117046464 -0.55306193832 0.69379746185 -0.45066602256 -0.55209608086 0.70137977962 
-0.43984600536 -0.55100434022 0.70910380445 -0.42826226672 -0.54960795046 0.71717077364 -0.4178357455 -0.54830225186 0.72438906519 
-0.41046501435 -0.5472360356 0.72936630797 -0.40566757034 -0.5465479741 0.73260800277 -0.40830598394 -0.54695264139 0.73083459939 
-0.41459284304 -0.54781112717 0.72650633094 -0.43247288819 -0.55011165242 0.71405980338 -0.45492280393 -0.55229221839 0.69791822379 
-0.49342352822 -0.55405145 0.66879847088 -0.53659460143 -0.55382272929 0.63472322325 -0.59798302766 -0.54583972085 0.58131837128 
-0.66149542052 -0.53323503283 0.52327494695 -0.73424924718 -0.50052129716 0.4450489741 -0.80438421341 -0.46350246998 0.36578786671 
-0.86178701319 -0.40555349277 0.28149422487 -0.91496432102 -0.34679780468 0.19926901015 -0.94509354358 -0.28364188545 0.12832609946 
-0.97249677546 -0.22143321317 0.059334681722 -0.9829626477 -0.16511005708 0.0024684478693 -0.99198004955 -0.10974649387 -0.053376860918 
-0.99053064581 -0.061317053862 -0.10184485345 -0.98823746604 -0.013608558016 -0.14984048191 -0.97871737425 0.027925076523 -0.19379032873 
-0.96867952091 0.068872712915 -0.23746805642 -0.95322689306 0.10369195321 -0.27829994953 -0.93738406188 0.13818343386 -0.31908800724 
-0.91630060025 0.16827293478 -0.35928733323 -0.8952274314 0.19784688078 -0.39901024698 -0.8743239548 0.21892111917 -0.43087878002 
-0.85330179753 0.24003968887 -0.46279594108 -0.82459724454 0.26402789712 -0.49786087498 -0.79810530213 0.2861670411 -0.53022292605 
-0.79810530213 0.2861670411 -0.53022292605 -0.79810530213 0.2861670411 -0.53022292605 
FrenetTangent 3 128 double
-0.99521532315 -0.036196510158 -0.090753915674 -0.99521532315 -0.036196510158 -0.090753915674 -0.9954692451 -0.05808576829 -0.075279649228 
-0.99443102805 -0.092069489953 -0.051284885489 -0.99049301745 -0.13605566387 -0.020308587204 -0.9821901193 -0.18724505303 0.01555183822 
-0.9686883098 -0.24238181775 0.053796030397 -0.95008590824 -0.29817414144 0.091809304241 -0.92740681263 -0.3517624625 0.12719974008 
-0.90230783362 -0.40107077324 0.15805950855 -0.87664848132 -0.44494174798 0.18306906104 -0.85209359158 -0.48306910146 0.20144665397 
-0.8298482422 -0.51581533278 0.21280610279 -0.81053692099 -0.54400618199 0.21699579181 -0.79418770205 -0.56875641009 0.21396738042 
-0.78027496505 -0.59133782367 0.20369231014 -0.76778672903 -0.61307533006 0.18612409408 -0.75529709106 -0.635249417 0.16119702988 
-0.74103478983 -0.65898699985 0.12885485743 -0.72295250666 -0.68512733901 0.089107813681 -0.69881498332 -0.71406099773 0.042124940453 
-0.66633594078 -0.74556100311 -0.011627753636 -0.62341396781 -0.77864303755 -0.071204247198 -0.56849948358 -0.81153343319 -0.13498823647 
-0.50106884403 -0.84184158415 -0.20058105778 -0.42206580482 -0.86700412628 -0.26488544961 -0.33404889195 -0.88494827622 -0.32446553932 
-0.24084803349 -0.89472642872 -0.37610748798 -0.14676284671 -0.89681983467 -0.41734260623 -0.055598340162 -0.89296855637 -0.44667211902 
0.030035707098 -0.88563840996 -0.46340313238 0.10899544378 -0.87740506311 -0.46720482495 0.18148870513 -0.87046346358 -0.45755350341 
0.24874712932 -0.86630654904 -0.43317182358 0.31266590885 -0.86546686489 -0.39141683053 0.37538931443 -0.86707357506 -0.32751530963 
0.43861150732 -0.86778143081 -0.23361364254 0.5018971792 -0.85933458943 -0.098200228677 0.55870099037 -0.82435025419 0.091103577237 
0.59055412074 -0.7348722942 0.33347944717 0.57141669787 -0.57128052161 0.58917019869 0.49729657443 -0.36027611275 0.78923839215 
0.39921217447 -0.16069376331 0.90266669053 0.30854661648 -0.0064599936955 0.95118728647 0.23716669258 0.10069761869 0.9662359699 
0.18503343063 0.16993035378 0.96792887363 0.14874359185 0.20975233933 0.96637430638 0.12481432177 0.22568038234 0.96617273306 
0.1103577387 0.22067503305 0.96908394853 0.10301062132 0.19595513366 0.97518736532 0.10072780794 0.15174670783 0.98327353538 
0.10157463088 0.087996129778 0.99092849162 0.10360160597 0.0051552618922 0.99460551502 0.10481087493 -0.094919538994 0.98995199965 
0.10329565911 -0.208194498 0.97261763186 0.097534716036 -0.32826295108 0.93953734046 0.086730324515 -0.44722007363 0.890208996 
0.071013361478 -0.55744638911 0.82717025198 0.051359931423 -0.65342536009 0.75524661948 0.029268327523 -0.73261682296 0.68001173204 
0.0064012470959 -0.79514433154 0.60638644118 -0.015641913539 -0.84285350563 0.5379156984 -0.035406001568 -0.87834718408 0.47671022569 
-0.051576331903 -0.90431035587 0.42374834779 -0.062946807783 -0.92314969425 0.37925234528 -0.0683894905 -0.93684351997 0.34299722546 
-0.066856654657 -0.946888678 0.31453460731 -0.057392196085 -0.9542840759 0.29333945919 -0.039163592912 -0.95952434186 0.27888931561 
-0.011515804663 -0.96259352841 0.27070479366 0.025957144776 -0.96297076459 0.26835337372 0.07331608629 -0.95966083129 0.27143293902 
0.13015323823 -0.95127210956 0.2795380263 0.19546520592 -0.93616624159 0.29220903712 0.26755898655 -0.91269167167 0.30887878074 
0.34403697314 -0.87948880146 0.32884344179 0.42192535765 -0.83581898134 0.35126289728 0.49795332097 -0.78183419824 0.37520364682 
0.56896825065 -0.71868228054 0.39971353416 0.63234570383 -0.64841094067 0.42391291897 0.68631445651 -0.57366794161 0.44707668196 
0.73009733967 -0.49729460637 0.46867467296 0.76383637251 -0.42196604707 0.4883632369 0.78839763154 -0.34991555605 0.50595284189 
0.80510960426 -0.28279150704 0.52137077851 0.81551179512 -0.22165641399 0.53461102323 0.82115600307 -0.16704290426 0.54571007573 
0.82346518706 -0.11904981881 0.55473617724 0.82364965519 -0.077467198939 0.56178294615 0.82266238506 -0.041900509632 0.56698408047 
0.821191681 -0.011853841311 0.57052932396 0.81967832282 0.013176688579 0.57267252595 0.81834415413 0.033602159496 0.57374536188 
0.81723049331 0.049698707141 0.57416405261 0.81624128847 0.061559363164 0.57442197364 0.8151783932 0.069070140069 0.57507695398 
0.81376557348 0.071920217597 0.57672616874 0.81166349202 0.069617378143 0.57996189218 0.80845577506 0.061530240287 0.58533177712 
0.80362293274 0.046942759139 0.59328455175 0.79650474129 0.025136076356 0.60410957182 0.78625965924 -0.0045027450226 0.61787982127 
0.77184376928 -0.042363102003 0.63439937217 0.75203155079 -0.08846671172 0.65316321661 0.72550924467 -0.14229863656 0.67334050371 
0.69104738375 -0.20265519543 0.69381869763 0.64773910262 -0.2675984755 0.71331978162 0.59526182079 -0.33451449507 0.73059114236 
0.5340755046 -0.40035634534 0.74463289756 0.46543579282 -0.46205590631 0.75489990211 0.39121471687 -0.51695047686 0.76138902657 
0.31357045164 -0.56311813615 0.76457278044 0.23459688976 -0.59949302427 0.76522703374 0.15607289802 -0.62582065063 0.76419222958 
0.079356166712 -0.64247469195 0.762186899 0.0054099021598 -0.65025808252 0.75969412205 -0.065100459375 -0.65026391237 0.75691398089 
-0.13167763184 -0.64375242177 0.75381948816 -0.19388925584 -0.63209974519 0.75023787468 -0.25129761587 -0.61675089787 0.7459677193 
-0.30343239002 -0.59917440559 0.74089055627 -0.34979503479 -0.58080638253 0.73505603844 -0.38988037809 -0.56297899992 0.7287303592 
-0.42321346418 -0.54687185704 0.72237215874 -0.44937911713 -0.53346262684 0.71657242122 -0.4680441902 -0.52350672563 0.71195178505 
-0.47897516775 -0.51753186364 0.70904411625 -0.47897516775 -0.51753186364 0.70904411625 
FrenetNormal 3 128 double
-0.022995807735 -0.81598061648 0.57762169831 -0.022995807735 -0.81598061648 0.57762169831 0.0039710347357 -0.8164230978 0.57744052184 
0.045841150779 -0.81605536442 0.57615295808 0.100047975 -0.81380451072 0.57246189483 0.16314528596 -0.80885506244 0.56492221026 
0.23110638153 -0.8010786691 0.55214382757 0.2998391606 -0.79133812966 0.53280431898 0.365760199 -0.78158602598 0.50531451673 
0.42618811952 -0.77477322182 0.4670012222 0.47931186665 -0.77458272593 0.41265207521 0.52338389047 -0.78466930995 0.33220983913 
0.55429573544 -0.80585722976 0.20820749967 0.56069018766 -0.82780712744 0.019022965718 0.52394033142 -0.81926518471 -0.23300447687 
0.44624735884 -0.75456190156 -0.48114408594 0.37114389549 -0.66237374018 -0.65077894647 0.33405510474 -0.58476562601 -0.73922685938 
0.33794862601 -0.53185414474 -0.77648045365 0.37262899461 -0.49526823825 -0.78476557299 0.42762377067 -0.46425089744 -0.77563458857 
0.49494032648 -0.4305758339 -0.75474401255 0.56868214981 -0.38903530159 -0.72474281411 0.6442567487 -0.3371279782 -0.68649688133 
0.71768172247 -0.27470280065 -0.63989945815 0.78545051563 -0.2038195073 -0.58440148524 0.84485924296 -0.12850584268 -0.51932562809 
0.89445882928 -0.054197553445 -0.44385361091 0.9343163254 0.012867446104 -0.35621262318 0.96538658745 0.066100012379 -0.25230839291 
0.98723552207 0.098830966639 -0.12489381087 0.99388331632 0.10459530454 0.035436927167 0.96945118489 0.080300081759 0.23176776519 
0.89477247234 0.034310040965 0.44520225049 0.77179817935 -0.0087246110353 0.63580771584 0.62951326338 -0.020842418493 0.77671014209 
0.49141659533 0.013951905404 0.87081288126 0.3568985366 0.10234136769 0.92852015543 0.20960307182 0.24662473401 0.94617270773 
0.034587508765 0.43590347635 0.89932856262 -0.15863858072 0.6274886461 0.76229377521 -0.33007338504 0.76272394784 0.55615082475 
-0.45015460589 0.82333633349 0.34565606135 -0.52478432535 0.83286580532 0.17588621947 -0.57630399681 0.81528063275 0.056490646453 
-0.63136539087 0.77533209786 -0.015423399221 -0.73367054439 0.67863544858 -0.034372375868 -0.96163121492 0.267295972 0.061792150285 
-0.55434284971 -0.7956253913 0.24430358509 -0.12236963214 -0.9704588293 0.20793107935 -0.0046782551575 -0.98821684217 0.15298884531 
0.025750647078 -0.99597911276 0.085805076259 0.022544747511 -0.99974181936 0.0028335443677 0.0022605597861 -0.99540937165 -0.095682144134 
-0.02781794806 -0.97807063038 -0.2064073733 -0.063828509514 -0.94415811268 -0.32325126392 -0.10287184289 -0.89281974447 -0.43850916503 
-0.14264003421 -0.82641629922 -0.54469250135 -0.18099895808 -0.74981108444 -0.63641394927 -0.21606459563 -0.66885677356 -0.711299309 
-0.24553141112 -0.58908518099 -0.76986555689 -0.26607135343 -0.51507554183 -0.81480256572 -0.27225578743 -0.45048973165 -0.85025630717 
-0.25497043577 -0.39832720552 -0.88109336294 -0.19707809861 -0.36102560801 -0.9114936826 -0.064834536195 -0.33890193248 -0.93858508569 
0.19726871683 -0.32156152488 -0.92611189339 0.58825871312 -0.26972393155 -0.7623651928 0.88551417904 -0.16263994265 -0.43521590938 
0.98601892574 -0.055938078953 -0.15696372005 0.99949868821 0.029868086489 0.010500937217 0.98857431516 0.1058721946 0.10729353111 
0.96940656217 0.18126953658 0.16550610966 0.94423273617 0.26015429075 0.20185213633 0.91189090646 0.34339981654 0.22479221676 
0.87070195801 0.42991077387 0.23886152228 0.81950742902 0.51731329085 0.24656547383 0.75802360486 0.60257501956 0.24960681133 
0.68713687348 0.6825086559 0.24904789042 0.60860528516 0.75436894661 0.24602255844 0.52503153671 0.81616509596 0.24128079409 
0.43927917102 0.86691908003 0.23555279363 0.35436184808 0.90660956369 0.22909993379 0.27296647081 0.93605285416 0.22202333218 
0.19739290826 0.95666448448 0.21407733161 0.1296124035 0.9702355447 0.20455711343 0.071053381212 0.97868944877 0.19266130871 
0.02284797928 0.98390320776 0.17723557092 -0.014276949352 0.98747939415 0.15710065193 -0.040342702393 0.99046423957 0.13173100049 
-0.055944389358 0.99329584429 0.10116121298 -0.063010100238 0.99574273562 0.067276531709 -0.065625643085 0.99722328272 0.035199422814 
-0.071393290016 0.99733105227 0.015289549545 -0.097714186748 0.99469181266 0.032251132463 -0.21008951542 0.96050896266 0.18244157463 
-0.58060932034 0.14506961317 0.80115393307 -0.36341000111 -0.71713903351 0.59468039963 -0.28832827562 -0.8256017428 0.48502429606 
-0.27583807041 -0.85396472271 0.44120019411 -0.28688297473 -0.86379676279 0.41418994604 -0.31159982004 -0.86639996591 0.39020078322 
-0.34709465056 -0.86405785763 0.36459473697 -0.39191292101 -0.8567672736 0.33519263301 -0.44503760801 -0.84330261918 0.30130087943 
-0.50508163619 -0.82203748837 0.26295799758 -0.57007968399 -0.79136625032 0.22079087787 -0.63780104143 -0.7497331261 0.17638047278 
-0.70553218661 -0.69634471794 0.13163725713 -0.77078564272 -0.63083140257 0.089113604447 -0.83116206406 -0.55367301169 0.051145081937 
-0.88465628195 -0.46582602818 0.019732568971 -0.92954546933 -0.36868725056 -0.0038641588997 -0.96407503414 -0.26487465869 -0.020018584539 
-0.98710718322 -0.15726409378 -0.029789488694 -0.99808690291 -0.050301760195 -0.0359481176 -0.99780865061 0.051407975375 -0.041654733728 
-0.98833068093 0.14399781665 -0.049669849264 -0.97251677747 0.22433656913 -0.0623235212 -0.95320860568 0.29150932851 -0.08009784926 
-0.93286876491 0.34521375409 -0.10287531992 -0.91310623136 0.38681609956 -0.1288810125 -0.89504077442 0.41776912114 -0.15611205446 
-0.87940567945 0.43980269339 -0.1822614656 -0.8666785645 0.45484664792 -0.20489702952 -0.85735098431 0.46428428589 -0.22223724165 
-0.85180332512 0.46923363636 -0.23291820416 -0.85180332512 0.46923363636 -0.23291820416 
FrenetBinormal 3 128 double
-0.09496132573 0.57694492474 0.81124404493 -0.09496132573 0.57694492474 0.81124404493 -0.095001120777 0.57452534227 0.81295474545 
-0.094897414902 0.57059342024 0.81573134635 -0.094413903014 0.56498767656 0.81967977909 -0.093199706142 0.55739822218 0.82499759799 
-0.090734772151 0.54728787702 0.83201152684 -0.086216267267 0.53373790003 0.84124348992 -0.078333139387 0.51515672758 0.85350891343 
-0.064840266615 0.48874194582 0.87001554596 -0.041804003316 0.44949798842 0.89230263012 -0.00241130152 0.38850780846 0.92144227621 
0.06409471574 0.29073814286 0.95465344482 0.16928205214 0.13708622729 0.97598716852 0.30781881524 -0.07294314984 0.94864475641 
0.43821715353 -0.28452752942 0.85264870337 0.52226022973 -0.43058061731 0.7361009336 0.56385591354 -0.50448720582 0.65388008681 
0.58022251459 -0.53185270776 0.61682617553 0.58179661867 -0.53414408311 0.61335372583 0.5734069496 -0.5240114462 0.62977493949 
0.55770107338 -0.50866810584 0.65591635965 0.53661498044 -0.49230737776 0.6853304375 0.51160685973 -0.47724020486 0.71449297263 