# vtk DataFile Version 4.2
vtk output
ASCII
DATASET POLYDATA
POINTS 128 float
0 0 0 -0.322193 -0.0987796 0.0350211 -0.952609 -0.290569 0.0923276 
-1.4807 -0.447756 0.114577 -1.92445 -0.576336 0.109792 -2.39641 -0.711736 0.100003 
-2.89072 -0.852278 0.0874216 -3.37736 -0.988856 0.0729462 -3.86012 -1.12367 0.0759861 
-4.34559 -1.26385 0.123158 -4.80542 -1.42445 0.249773 -5.20572 -1.6219 0.480931 
-5.53855 -1.86731 0.776516 -5.81006 -2.16671 1.07971 -6.05714 -2.50838 1.35415 
-6.32016 -2.87566 1.5752 -6.60344 -3.2567 1.74607 -6.89951 -3.6424 1.87849 
-7.2044 -4.0301 1.97797 -7.51503 -4.41979 2.04774 -7.82594 -4.81342 2.09061 
-8.13054 -5.21384 2.10889 -8.42096 -5.62494 2.10253 -8.68829 -6.05079 2.07048 
-8.92025 -6.49398 2.01124 -9.10349 -6.95562 1.92359 -9.22722 -7.43105 1.80963 
-9.28305 -7.91305 1.67332 -9.27255 -8.39416 1.52189 -9.20202 -8.86737 1.36391 
-9.07976 -9.33011 1.2065 -8.91474 -9.78198 1.05621 -8.7139 -10.2232 0.920259 
-8.48276 -10.6544 0.806328 -8.22385 -11.0784 0.722807 -7.93922 -11.4977 0.682101 
-7.6411 -11.902 0.730377 -7.34965 -12.2718 0.925732 -7.10861 -12.5702 1.26405 
-6.96824 -12.757 1.70509 -6.91415 -12.8611 2.20073 -6.89838 -12.9464 2.7019 
-6.8952 -13.0457 3.19338 -6.89266 -13.1727 3.67957 -6.8804 -13.3408 4.15471 
-6.8494 -13.5627 4.60665 -6.79639 -13.8413 5.02389 -6.72229 -14.1728 5.39606 
-6.63294 -14.5487 5.72024 -6.53745 -14.9576 5.9989 -6.44432 -15.3906 6.23852 
-6.36146 -15.8407 6.4483 -6.29461 -16.3029 6.6361 -6.24783 -16.7734 6.8087 
-6.22309 -17.2488 6.9719 -6.22065 -17.7264 7.13069 -6.23862 -18.2037 7.28913 
-6.27332 -18.6791 7.45049 -6.31955 -19.1516 7.61721 -6.37093 -19.6211 7.79094 
-6.42057 -20.0877 7.97263 -6.46118 -20.552 8.16254 -6.48603 -21.0141 8.36021 
-6.48888 -21.4741 8.56447 -6.46495 -21.9313 8.7738 -6.41088 -22.3844 8.98632 
-6.32461 -22.8319 9.20023 -6.20539 -23.272 9.41382 -6.05318 -23.7025 9.62579 
-5.86858 -24.1215 9.83527 -5.65216 -24.5265 10.0418 -5.40446 -24.9148 10.2451 
-5.126 -25.2834 10.4455 -4.81737 -25.6288 10.6429 -4.47951 -25.9474 10.8377 
-4.11386 -26.2352 11.0304 -3.72271 -26.4887 11.2211 -3.30939 -26.7055 11.4102 
-2.87768 -26.8844 11.598 -2.43192 -27.0255 11.7849 -1.97618 -27.1304 11.9714 
-1.51412 -27.2019 12.1581 -1.04878 -27.2432 12.3455 -0.582358 -27.2579 12.5342 
-0.116524 -27.2491 12.7245 0.34771 -27.2201 12.9166 0.809626 -27.1735 13.1108 
1.26888 -27.1115 13.307 1.72527 -27.036 13.505 2.1788 -26.9487 13.7048 
2.62954 -26.8511 13.906 3.07758 -26.7445 14.1088 3.52302 -26.6303 14.313 
3.966 -26.5104 14.5194 4.40658 -26.3867 14.7286 4.8447 -26.2613 14.9419 
5.28017 -26.1367 15.1611 5.71263 -26.0156 15.388 6.14157 -25.9006 15.6247 
6.56625 -25.7944 15.873 6.98586 -25.6999 16.1342 7.39955 -25.6198 16.4095 
7.80644 -25.5577 16.6992 8.20564 -25.5175 17.0032 8.59596 -25.5038 17.3209 
8.97559 -25.5227 17.6512 9.34176 -25.5809 17.9923 9.68957 -25.6859 18.3414 
10.0128 -25.8442 18.6947 10.3028 -26.059 19.0466 10.5511 -26.3305 19.3918 
10.751 -26.6519 19.7251 10.898 -27.0144 20.0431 10.9926 -27.4065 20.3458 
11.0369 -27.8171 20.6343 11.0345 -28.2374 20.9119 10.9897 -28.6592 21.1829 
10.9083 -29.0761 21.4536 10.7958 -29.482 21.7303 10.6564 -29.8702 22.018 
10.4983 -30.2343 22.325 10.3453 -30.57 22.6714 10.2206 -30.8714 23.0675 
10.1349 -31.1259 23.4825 10.1072 -31.3348 23.9005 10.1978 -31.556 24.3969 
10.414 -31.8099 24.9673 10.5439 -31.9384 25.2541 
LINES 1 129
128 0 1 2 3 4 5 6 7 8 9 10 11 12 13 14 15 16 17 18 19 20 21 22 23 24 25 26 27 28 29 30 31 32 33 34 35 36 37 38 39 40 41 42 43 44 45 46 47 48 49 50 51 52 53 54 55 56 57 58 59 60 61 62 63 64 65 66 67 68 69 70 71 72 73 74 75 76 77 78 79 80 81 82 83 84 85 86 87 88 89 90 91 92 93 94 95 96 97 98 99 100 101 102 103 104 105 106 107 108 109 110 111 112 113 114 115 116 117 118 119 120 121 122 123 124 125 126 127 

CELL_DATA 1
FIELD FieldData 2
Length 1 1 double
59.984048168 
Tortuosity 1 1 double
0.42616988517 
POINT_DATA 128
SCALARS MaximumInscribedSphereRadius float
LOOKUP_TABLE default
0.93 0.981584 1.03317 1.08848 1.14397 1.15255 1.16019 1.02774 0.887364 
0.934566 0.995233 1.30361 1.63317 1.6538 1.64438 1.64777 1.6527 1.7169 
1.78944 1.76591 1.72681 1.62388 1.50915 1.44427 1.38978 1.40746 1.44192 
1.46721 1.49013 1.37025 1.21017 1.03859 0.863477 0.836392 0.859167 0.976185 
1.12784 1.31544 1.51738 1.6143 1.67139 1.52323 1.28291 1.16605 1.10724 
1.19563 1.35908 1.49127 1.60649 1.69284 1.76241 1.7964 1.80818 1.77986 
1.72476 1.66452 1.60061 1.56648 1.55511 1.55 1.55 1.57158 1.61199 
1.66543 1.73104 1.78146 1.81678 1.81506 1.77401 1.7394 1.7121 1.70877 
1.73444 1.7682 1.81241 1.86196 1.91887 1.98017 2.04793 2.11545 2.18255 
2.24932 2.31551 2.36946 2.4012 2.40806 2.36641 2.31706 2.25156 2.23082 
2.31162 2.40705 2.53841 2.64678 2.694 2.71193 2.64503 2.5747 2.49352 
2.39749 2.25 2.10524 1.97088 1.84703 1.76762 1.69775 1.67286 1.67003 
1.78419 1.90946 2.10128 2.26386 2.22727 2.171 1.95877 1.77235 1.82994 
1.90515 2.18301 2.44757 2.51217 2.56584 2.41348 2.26332 2.22281 2.18379 
2.1769 2.17 
TEXTURE_COORDINATES TCoords 2 float
0 0 0.00787402 0 0.015748 0 0.023622 0 0.0314961 
0 0.0393701 0 0.0472441 0 0.0551181 0 0.0629921 0 
0.0708661 0 0.0787402 0 0.0866142 0 0.0944882 0 0.102362 
0 0.110236 0 0.11811 0 0.125984 0 0.133858 0 
0.141732 0 0.149606 0 0.15748 0 0.165354 0 0.173228 
0 0.181102 0 0.188976 0 0.19685 0 0.204724 0 
0.212598 0 0.220472 0 0.228346 0 0.23622 0 0.244094 
0 0.251969 0 0.259843 0 0.267717 0 0.275591 0 
0.283465 0 0.291339 0 0.299213 0 0.307087 0 0.314961 
0 0.322835 0 0.330709 0 0.338583 0 0.346457 0 
0.354331 0 0.362205 0 0.370079 0 0.377953 0 0.385827 
0 0.393701 0 0.401575 0 0.409449 0 0.417323 0 
0.425197 0 0.433071 0 0.440945 0 0.448819 0 0.456693 
0 0.464567 0 0.472441 0 0.480315 0 0.488189 0 
0.496063 0 0.503937 0 0.511811 0 0.519685 0 0.527559 
0 0.535433 0 0.543307 0 0.551181 0 0.559055 0 
0.566929 0 0.574803 0 0.582677 0 0.590551 0 0.598425 
0 0.606299 0 0.614173 0 0.622047 0 0.629921 0 
0.637795 0 0.645669 0 0.653543 0 0.661417 0 0.669291 
0 0.677165 0 0.685039 0 0.692913 0 0.700787 0 
0.708661 0 0.716535 0 0.724409 0 0.732283 0 0.740157 
0 0.748031 0 0.755906 0 0.76378 0 0.771654 0 
0.779528 0 0.787402 0 0.795276 0 0.80315 0 0.811024 
0 0.818898 0 0.826772 0 0.834646 0 0.84252 0 
0.850394 0 0.858268 0 0.866142 0 0.874016 0 0.88189 
0 0.889764 0 0.897638 0 0.905512 0 0.913386 0 
0.92126 0 0.929134 0 0.937008 0 0.944882 0 0.952756 
0 0.96063 0 0.968504 0 0.976378 0 0.984252 0 
0.992126 0 1 0 
FIELD FieldData 7
Curvature 1 128 double
0 0.0097716796023 0.019997042085 0.03245872536 0.047449216382 0.064598356468 0.0828080315 0.10029267454 0.11483058709 
0.12432483426 0.12760326659 0.125097539 0.11901462312 0.11268432817 0.1092243281 0.11007186133 0.11460017121 0.1212204602 
0.12867122937 0.13650272238 0.14492621523 0.15426133442 0.16444308339 0.17478564111 0.18398159084 0.1905747959 0.19355524954 
0.19287664903 0.18997768691 0.18772909073 0.19013520532 0.20131510436 0.22382883771 0.25683068185 0.29495944108 0.32793587997 
0.34279097235 0.32990959315 0.28940823933 0.23082301095 0.16680938268 0.10798364826 0.065307800435 0.057795200089 0.08009916419 
0.10606228645 0.12608127737 0.13741596626 0.13980899473 0.13438961552 0.12321840889 0.10854835709 0.092325424861 0.075785651655 
0.059612982873 0.043901817633 0.028492310161 0.013240193417 0.0037310146843 0.0185548108 0.034308131344 0.049976903787 0.065245783052 
0.079761943991 0.093248025474 0.10549084484 0.11634083837 0.12577248018 0.13382023174 0.140586854 0.14612741777 0.15054840824 
0.15376277293 0.15573589919 0.15628385658 0.15525852233 0.15256612576 0.14817913919 0.14217292127 0.13476671046 0.12628101093 
0.11703684027 0.10734078482 0.097558917509 0.087879581796 0.078493238089 0.06946064514 0.060882158239 0.052707125216 0.045075774741 
0.037982771407 0.031827672822 0.027268217076 0.025526248609 0.027527195419 0.033096893351 0.041340972741 0.051482512423 0.063167716733 
0.076269268218 0.090756243614 0.10667588733 0.12393499357 0.14243776676 0.16170958156 0.18103562372 0.19920844557 0.21466148844 
0.22555236403 0.23020728595 0.2274326345 0.21695838447 0.19955122061 0.17670738523 0.15047762024 0.12310627965 0.097340920667 
0.076860685535 0.066669508733 0.068843572735 0.078176702632 0.087214796749 0.090829417043 0.086275259562 0.072936108511 0.051905055482 
0.02557610697 0 
Torsion 1 128 double
0 0 -0.026211835619 -0.040091196464 -0.0563482201 -0.074818635922 -0.096099806722 -0.12149329001 -0.15312260076 
-0.19398530005 -0.24741441307 -0.31505421844 -0.3907023283 -0.45086009182 -0.45753096344 -0.39194626967 -0.27802445669 -0.15344075465 
-0.040880189896 0.051224874679 0.11997658592 0.16512046838 0.19050417604 0.20346988508 0.2130597693 0.22787487941 0.25469928881 
0.29865643051 0.36114469984 0.43470233883 0.49673381106 0.51564728503 0.47888304734 0.4069456858 0.3301542777 0.26710290004 
0.22419669888 0.20307997021 0.20690644515 0.24832239517 0.36855979687 0.70670016732 1.5958537148 1.6806195562 0.69063918078 
0.27991792378 0.11211335927 0.023965034016 -0.034163858755 -0.079210432465 -0.11719941984 -0.14969785563 -0.17539889614 -0.19144648054 
-0.193696723 -0.17550406204 -0.10964815952 0.27438810756 5.880682331 0.10570047016 -0.050254745426 -0.06871509395 -0.064690664125 
-0.054388424096 -0.041269599887 -0.027252156246 -0.013183097146 0.00082798515913 0.014414198073 0.02703220978 0.038353643814 0.047851020606 
0.055392307982 0.061075626906 0.064959354999 0.0674033768 0.068863049727 0.069417999729 0.069662168442 0.069885089352 0.069922672454 
0.070212153814 0.071041886926 0.07261115637 0.075591543009 0.081702583894 0.092774684172 0.11180607547 0.1444947258 0.19908026197 
0.29103966875 0.43618502213 0.62740613616 0.75738841403 0.68904821139 0.50838339869 0.35206801805 0.24877680767 0.18466274815 
0.14310341224 0.11366156795 0.09072627791 0.070845658941 0.052316833731 0.034157672632 0.015736065826 -0.0027721875301 -0.022139854013 
-0.042566953048 -0.064308557082 -0.088549926871 -0.11693434732 -0.15235059683 -0.19998181817 -0.26985547272 -0.3818528782 -0.56736243936 
-0.83659862427 -1.0134381361 -0.84996967713 -0.56575160464 -0.36303331376 -0.23945076798 -0.16146808555 -0.1085026877 -0.070305441732 
0 0 
Abscissas 1 128 double
0 0.50316606362 1.0063321272 1.5094972933 2.0126624174 2.5158286031 3.01899481 3.5221609404 4.0253270665 
4.5284919401 5.0316567238 5.5348236496 6.0379907584 6.5411557741 7.0443205862 7.5474867376 8.0506530498 8.5538177278 
9.0569821762 9.5601459192 10.063309548 10.566475379 11.069641616 11.572809974 12.075978772 12.579145109 13.082310874 
13.585476622 14.088642365 14.591808723 15.094975254 15.598131001 16.101283423 16.604448546 17.107617947 17.610800273 
18.113987349 18.617142071 19.120283896 19.623450676 20.126626926 20.629791949 21.132951933 21.636119288 22.139290108 
22.642446414 23.145595316 23.648766273 24.151949204 24.655117855 25.158278207 25.661448135 26.164624036 26.66779394 
27.170959839 27.674122833 28.177283753 28.68044562 29.183608212 29.686782088 30.189965185 30.693135346 31.196294219 
31.699443056 32.202582539 32.705744004 33.208927347 33.712099324 34.21525923 34.718433272 35.22162334 35.724801092 
36.227963943 36.731123132 37.23427759 37.73743898 38.240609939 38.74377726 39.246939214 39.750104931 40.253276588 
40.756442753 41.25959963 41.762759354 42.265924247 42.769092816 43.272268562 43.775439125 44.278598797 44.781763613 
45.284940091 45.788107111 46.291250928 46.7944022 47.297573311 47.800743713 48.303912059 48.807082666 49.310260421 
49.813432478 50.316584781 50.819739797 51.322905182 51.826072411 52.329247451 52.832421585 53.335591441 53.838760438 
54.341924878 54.845093178 55.348284608 55.851468924 56.354604766 56.857740918 57.360879529 57.864025745 58.367243843 
58.870455958 59.373599266 59.876744408 60.379917113 60.883089265 61.386250975 61.889412103 62.392544126 62.895679364 
63.398883548 63.902087733 
ParallelTransportNormals 3 128 double
0.095756606658 0 0.99540477811 0.059939076037 -0.010721277911 0.99741062452 0.024121545416 -0.021442555821 0.99941647092 
0.0048191061048 -0.027048389647 0.99944112319 -0.013712122679 -0.032415345935 0.999373259 -0.0079264323863 -0.030782422676 0.99947271529 
-0.0016529726076 -0.029009089867 0.99957552784 0.086292073534 -0.0025362449713 0.9914819506 0.17885408267 0.025332883973 0.9829250246 
0.33763069517 0.096459232011 0.91605546812 0.50116084271 0.17069100841 0.84499965787 0.54279720156 0.20212394128 0.81362183554 
0.57401436337 0.22989852873 0.78563559517 0.53010861998 0.17101018715 0.82486783196 0.47889313594 0.10368921728 0.87064067889 
0.43155477608 0.041164027925 0.89744662317 0.38468178106 -0.020785531766 0.92197600126 0.34822564165 -0.067462261796 0.93321782619 
0.31323375088 -0.11199216164 0.94259188196 0.28735451433 -0.14592984826 0.94578127601 0.26295298136 -0.17814990671 0.94796776831 
0.2453768495 -0.20480823342 0.94706298197 0.22906212193 -0.23043869492 0.94558689555 0.2194489056 -0.25092849616 0.94256490057 
0.21123069338 -0.27034820411 0.93922110522 0.20872714696 -0.28004933847 0.93698776726 0.20755217815 -0.28749104426 0.93501259467 
0.20654081887 -0.28164418786 0.9369763975 0.20557144908 -0.27238689505 0.93995111672 0.19884479661 -0.25056574244 0.94706089819 
0.19049797581 -0.22520896916 0.95533433573 0.1703794783 -0.18365015082 0.9666876625 0.14663110505 -0.13709532284 0.97899069383 
0.090576999134 -0.049077415226 0.98752926084 0.023642089251 0.052905556908 0.99479992909 -0.11392936717 0.23830395094 0.92284272144 
-0.2774586553 0.45435621451 0.82177050222 -0.39881502706 0.61658098344 0.61165792108 -0.5033592955 0.75734758728 0.35807673525 
-0.5356275521 0.8057413414 0.24582059887 -0.54047349447 0.81908781987 0.18718474137 -0.54128606091 0.81285464411 0.20782264753 
-0.54028773497 0.79783065702 0.26405263776 -0.53498074922 0.75756819219 0.35586926223 -0.52764788269 0.70543889418 0.46441830042 
-0.51315634675 0.63148295319 0.56754370956 -0.49501379059 0.54639512296 0.66790299302 -0.47771445928 0.46788217823 0.73827693676 
-0.46087299323 0.3929393508 0.79236904865 -0.45023033276 0.34078943798 0.82429908148 -0.44318972911 0.30188423368 0.8433509773 
-0.44002132076 0.28237124587 0.85240421105 -0.439268208 0.274954222 0.8552207438 -0.43904939909 0.27939895596 0.85383073705 
-0.43918745721 0.29176627997 0.8496311393 -0.43852568073 0.30811920231 0.84404513676 -0.43729227812 0.32732055376 0.83746829786 
-0.43592061035 0.34402215096 0.83151414182 -0.43444327109 0.35881326845 0.82603588173 -0.43361102975 0.36758861454 0.82270650024 
-0.43330580559 0.37144933458 0.82113265999 -0.43316577689 0.36866479031 0.82242565565 -0.43316990631 0.3600812433 0.8262204012 
-0.43205933628 0.34684973675 0.83230090299 -0.42990982304 0.32928615123 0.84051181843 -0.42594326594 0.30992211802 0.84975025899 
-0.42016817632 0.28876607075 0.86001141158 -0.41286603826 0.26812663684 0.87018129289 -0.40394223542 0.24803582581 0.88025424774 
-0.39422230331 0.22964807368 0.88967278808 -0.38359983259 0.21319100851 0.89834944596 -0.37309266212 0.19901161012 0.9060888272 
-0.36272498842 0.18758786198 0.9126942381 -0.35346496668 0.17850853769 0.91821460319 -0.34563627035 0.17245871505 0.92233285488 
-0.33987801892 0.16832309937 0.92527939162 -0.33697841868 0.16683041807 0.92660814839 -0.3364225783 0.16630473958 0.92690646552 
-0.33932471077 0.16720577274 0.92568447662 -0.34406347075 0.16820422656 0.92373368058 -0.35170124888 0.16935645366 0.92063250151 
-0.36027334221 0.17018689846 0.91715107694 -0.37042541199 0.17047319236 0.91302663711 -0.38069145039 0.17041395204 0.90882172843 
-0.39116435816 0.16972751756 0.90447075726 -0.40128939905 0.16883181455 0.90022310924 -0.41073562531 0.16752775263 0.89617708222 
-0.41966960784 0.16614939505 0.89231732905 -0.42752725475 0.16461492608 0.88884897782 -0.4350461846 0.16305445327 0.88550433308 
-0.44179693389 0.16143500604 0.88244024379 -0.44870950866 0.15971189512 0.87927091062 -0.45601901256 0.15773451559 0.87584343291 
-0.46413204428 0.15550439688 0.87197110434 -0.47438385784 0.15260155229 0.86691469858 -0.48585859917 0.14938844554 0.86109576896 
-0.50087488726 0.14527683277 0.85306860267 -0.51694922402 0.14103369277 0.8441832693 -0.53636944568 0.13637462202 0.83258413991 
-0.55621337881 0.13191271453 0.8203373712 -0.57752613355 0.12813428556 0.80584552132 -0.59860819666 0.1248290704 0.7911000535 
-0.61880889113 0.12333179164 0.77538562603 -0.63859770851 0.12244708033 0.75960183329 -0.65664288497 0.12415561272 0.74352438954 
-0.67456870873 0.12670408726 0.72710939044 -0.69193105471 0.13321802545 0.70910075366 -0.70940978871 0.14117499195 0.69027622696 
-0.72750601478 0.15678788803 0.66712302857 -0.74526112643 0.17433450001 0.64317942003 -0.76097244008 0.20346703278 0.61450004371 
-0.77569705013 0.23414707164 0.58549803043 -0.78369868058 0.27537116041 0.55429770585 -0.79058127852 0.31742038605 0.52297002698 
-0.78859928214 0.36600606476 0.49063349083 -0.78569538476 0.41488784823 0.45805202199 -0.77407853745 0.46656813808 0.42315567735 
-0.76195820166 0.51795414131 0.38794712427 -0.74404777518 0.565955864 0.34914819076 -0.7267135585 0.61226529892 0.31126450136 
-0.71803815689 0.63314440135 0.28713436061 -0.70995559843 0.65199716472 0.26591539371 -0.71306140038 0.63260809008 0.29963720224 
-0.71571108635 0.61279666843 0.33444523115 -0.69556818704 0.57188013265 0.42353280931 -0.67632275118 0.53278662614 0.50865110561 
-0.67632275118 0.53278662614 0.50865110561 -0.67632275118 0.53278662614 0.50865110561 
FrenetTangent 3 128 double
-0.95450236555 -0.29281103435 0.056452921213 -0.95450236555 -0.29281103435 0.056452921213 -0.95290820778 -0.29674440698 0.062519632723 
-0.94995235326 -0.30372580678 0.073083245951 -0.94509380102 -0.31448546406 0.088862816594 -0.93757284869 -0.32981737979 0.11035238736 
-0.92645523717 -0.35039896458 0.13748185023 -0.9107746135 -0.37658980334 0.16932136137 -0.88980000749 -0.40825379433 0.20392348097 
-0.86338022858 -0.444674409 0.23840983804 -0.83221522699 -0.48462687156 0.26935963198 -0.79786649978 -0.52660397235 0.29342342243 
-0.76241951505 -0.56911079376 0.30794380573 -0.72791391059 -0.61090328444 0.31134950753 -0.69578926907 -0.65109791221 0.30323060821 
-0.66654745131 -0.68917527225 0.28416885697 -0.63969564789 -0.72493382411 0.25546120789 -0.61390505134 -0.75843820833 0.21884257375 
-0.58728327617 -0.78995914442 0.17624671251 -0.5576786724 -0.81987366452 0.12962126589 -0.52295090334 -0.84852322781 0.080812651078 
-0.4812015693 -0.87604246906 0.031537947007 -0.43099184767 -0.90220391944 -0.016556418195 -0.37154780843 -0.926355744 -0.061783991525 
-0.30296425746 -0.94749389025 -0.10231317917 -0.22634510083 -0.96448761096 -0.13613061242 -0.14376743972 -0.97640965578 -0.1611058887 
-0.058046779418 -0.98283275635 -0.17512950762 0.027687191667 -0.98395647462 -0.17624719987 0.11044306877 -0.98047315821 -0.16271052391 
0.18764125115 -0.97320043713 -0.1329348338 0.25711982302 -0.96259483758 -0.085443403942 0.31687425086 -0.94827763673 -0.018979800546 
0.36466220053 -0.92872733217 0.066985237016 0.39776993292 -0.9013726314 0.17119129601 0.41335232456 -0.86343901877 0.2891589816 
0.40965229739 -0.813720486 0.41236387562 0.38768642805 -0.75453470684 0.52950600532 0.35197571836 -0.69214254895 0.63012045326 
0.30928508111 -0.63474127571 0.70812869699 0.26623108953 -0.58951077893 0.76262575913 0.22754653208 -0.56084844882 0.79603491958 
0.19569084606 -0.55026744499 0.81173322696 0.17127963678 -0.55707224593 0.81260925348 0.1536784803 -0.57902553658 0.8006949186 
0.14147657094 -0.61280851561 0.77746389181 0.13283329083 -0.65441766809 0.74437412135 0.12579430022 -0.69961915356 0.70335541087 
0.11858968889 -0.74451558035 0.65698785096 0.10988302471 -0.78605750874 0.60830856795 0.098934109787 -0.82230440165 0.56038157799 
0.085637964874 -0.85239076336 0.5158450596 0.070453538578 -0.87627855809 0.47662583599 0.054288908667 -0.89444291496 0.44387451635 
0.038362727356 -0.90761860016 0.41803920606 0.024063526771 -0.91663033762 0.39901099086 0.012820602806 -0.92228574826 0.38629604022 
0.0059854355949 -0.92532111901 0.37913718002 0.0047340499521 -0.92634939589 0.3766356137 0.009992011454 -0.92581847999 0.37783634263 
0.022390945174 -0.92398492872 0.38177283439 0.042243330059 -0.92089257042 0.38752080564 0.069543840729 -0.91637088373 0.39424365267 
0.10398446613 -0.9100673693 0.4012039558 0.14498553588 -0.90149536158 0.4077809552 0.19174616745 -0.89008141007 0.41350754614 
0.24329701762 -0.87522700226 0.41807207001 0.29856204537 -0.85636408258 0.42130898772 0.35641773109 -0.83299311929 0.42318892256 
0.41573565998 -0.80471321193 0.42379300085 0.47540571704 -0.77125013038 0.42327608082 0.53435372977 -0.73247579232 0.42183563759 
0.59154128127 -0.68843965358 0.41967815755 0.64597117654 -0.63939945305 0.41700069368 0.69671337812 -0.58583882357 0.41398471173 
0.74293523073 -0.52848648725 0.41079103658 0.78396209484 -0.46828880883 0.40756474992 0.81932756197 -0.40635989224 0.40444280706 
0.84881240295 -0.34391353961 0.40154823107 0.87245851903 -0.28216384403 0.39899836803 0.89055432633 -0.22222307712 0.39690036011 
0.90358843053 -0.16503615664 0.39533658471 0.91218129851 -0.11134935976 0.39436860769 0.9170227609 -0.061679015575 0.39403674324 
0.91881055827 -0.01633166629 0.39436079253 0.91820278683 0.024550834068 0.39534908474 0.91578333673 0.060948328326 0.3970216385 
0.91204820368 0.092922770618 0.3994163653 0.90740131337 0.12056618189 0.40259986623 0.90215472855 0.14397865051 0.40667799786 
0.89653775817 0.16322708571 0.41179723976 0.89070589343 0.17832100539 0.4181442699 0.88474870793 0.18921671377 0.42593046268 
0.87869653215 0.19581253388 0.43537323754 0.87252794611 0.19793319845 0.44667374247 0.86616920001 0.1953377139 0.45999358091 
0.85949353531 0.18771237606 0.4754313059 0.85231296414 0.17467075587 0.49300379126 0.84436078111 0.15578302235 0.51262707816 
0.83527323355 0.13056081302 0.53410907071 0.82456047441 0.098498073566 0.55713387398 0.81156917204 0.059113601266 0.58125817081 
0.79545763116 0.012029019063 0.60588980824 0.7751791262 -0.042936509708 0.63028071399 0.74950502386 -0.10562654682 0.6535175987 
0.71711094569 -0.1753741249 0.67453377076 0.6767355141 -0.25083451833 0.69217850903 0.62744611069 -0.32987429904 0.70533277608 
0.56893973957 -0.40957953622 0.71312844302 0.50182735121 -0.48648102076 0.71519614514 0.42778955293 -0.55698921418 0.71187015227 
0.34948996575 -0.61793133133 0.70428519337 0.27024418526 -0.66704690636 0.69427408496 0.19357362632 -0.70324169595 0.68409090644 
0.12278188451 -0.72656145593 0.67604220253 0.060666974476 -0.73793333665 0.67214128639 0.0093850913682 -0.73880361678 0.67385542655 
-0.029565656606 -0.73081866474 0.68193104579 -0.055355964269 -0.71560262971 0.69631070189 -0.067889053631 -0.69466539538 0.71612224157 
-0.067910948194 -0.66945490128 0.73974200791 -0.057171247991 -0.64149804954 0.76499130769 -0.038477042547 -0.61254586384 0.7894979936 
-0.015516757069 -0.58464945418 0.81113762456 0.0075820156252 -0.56006275599 0.82841548899 0.026892569899 -0.54097974179 0.84060556069 
0.039305564028 -0.5291861814 0.8475948667 0.039305564028 -0.5291861814 0.8475948667 
FrenetNormal 3 128 double
0.21071354633 -0.52830870443 0.82248994779 0.21071354633 -0.52830870443 0.82248994779 0.21936445791 -0.53213816733 0.81774580737 
0.23460236183 -0.53911892493 0.80889586265 0.25762995836 -0.54969069469 0.79464894433 0.28939445617 -0.56385693768 0.77350901906 
0.33024339682 -0.58141982751 0.7435659238 0.37958724246 -0.60227096688 0.7022700391 0.43559827409 -0.6265997117 0.64624062462 
0.49499603226 -0.65496617938 0.57096254862 0.5528058613 -0.68783248988 0.47041699117 0.60182417817 -0.72396999184 0.33715739573 
0.63185708944 -0.75740003081 0.16462627934 0.63093562889 -0.77454827448 -0.044667691925 0.59357548759 -0.75896812546 -0.26764813668 
0.53279530505 -0.7070372881 -0.46500261951 0.47613259097 -0.63465023696 -0.60870093851 0.44629693975 -0.56215396246 -0.69627721782 
0.45177936891 -0.50061837458 -0.73842849678 0.49033895346 -0.45139593077 -0.74552627345 0.55413911005 -0.41048961913 -0.72417409461 
0.63272850393 -0.3720019579 -0.6791680084 0.7156813273 -0.33059804266 -0.6152277399 0.79490529356 -0.28303107014 -0.53667400496 
0.86520168785 -0.22845197431 -0.44635830313 0.92364927906 -0.16815471777 -0.34437769988 0.96799702172 -0.10491235104 -0.22798062318 
0.99483319901 -0.042311270445 -0.092285765685 0.9975453116 0.015852450351 0.068205946451 0.96463833823 0.066326027204 0.25509554 
0.8823160522 0.10752859802 0.45820954229 0.7457228802 0.1413987794 0.6510789285 0.57047695192 0.17456624168 0.80254761516 
0.38411196649 0.21557272364 0.89776745209 0.20685380069 0.26988869836 0.94041033365 0.045500206874 0.33674673767 0.94049527689 
-0.099806495951 0.40934118162 0.90690598211 -0.23047395713 0.47684231066 0.84823532457 -0.34904038498 0.52758518073 0.77448349675 
-0.46247386374 0.55025727743 0.6952228808 -0.58681387291 0.52854682988 0.61342295946 -0.75372344026 0.41614609865 0.50864860187 
-0.96214807512 0.052363513291 0.2674493298 -0.7892835937 -0.57122780911 -0.22523365385 -0.39356230845 -0.77914093904 -0.48790173855 
-0.2025078545 -0.78667084736 -0.58321483759 -0.12565117664 -0.75608865554 -0.64229411237 -0.10469608273 -0.71439038226 -0.69187073359 
-0.11700319683 -0.6675251045 -0.73533698859 -0.15282673232 -0.61809852053 -0.7711019445 -0.20712142789 -0.56782736888 -0.7966635383 
-0.27624184716 -0.51776252936 -0.80969895953 -0.35649019552 -0.46837665967 -0.80841699956 -0.44267143762 -0.42001827819 -0.79222890903 
-0.52828475687 -0.37352484049 -0.7624922355 -0.60527263777 -0.33101725698 -0.72392859423 -0.66267220862 -0.29714285557 -0.68743848257 
-0.65485671867 -0.29016238151 -0.6978312621 0.97202051757 -0.084191419396 -0.21928957639 0.94339772587 0.13399822322 0.30338953015 
0.94391976308 0.14536316731 0.29645409501 0.95374287602 0.15271660742 0.25894432657 0.96187545952 0.16637972613 0.21705618423 
0.96642374022 0.18775779404 0.17541996781 0.96657962805 0.21711708105 0.13632312994 0.96193124005 0.25403695558 0.10076464963 
0.95215242912 0.29770248177 0.069130196519 0.93689928758 0.34711361203 0.041615685458 0.91578613277 0.40124009235 0.018497224498 
0.88850740681 0.45886217035 -0.00031091177264 0.85483368841 0.51868467661 -0.015019034657 0.8146706209 0.57934064889 -0.026003691992 
0.76815213486 0.63936936693 -0.033898529934 0.71561415253 0.69739412553 -0.039215027405 0.65765180851 0.75212548243 -0.042442401462 
0.59514504348 0.80241068209 -0.044039465017 0.52913428092 0.84738812676 -0.044161922321 0.46081784813 0.88645859735 -0.042872672288 
0.39152923391 0.91928289532 -0.040296617383 0.32239620362 0.94591914497 -0.036023035215 0.25458826627 0.96658247278 -0.030052254331 
0.18901731002 0.98172291683 -0.022193942487 0.12635107015 0.99191071482 -0.012187735311 0.066992755145 0.99775342526 0.00027045136042 
0.011082914798 0.9998171427 0.015583650581 -0.041579197829 0.99853732329 0.03455986548 -0.091843627012 0.99400882413 0.059255427789 
-0.14067939141 0.98578110352 0.091896271792 -0.1902117208 0.97205087137 0.13761033661 -0.2428603694 0.94860226037 0.20291030679 
-0.30241230791 0.90482146804 0.29974140023 -0.37052003138 0.81770149524 0.44054417602 -0.43950453627 0.64284317785 0.62736624972 
-0.47731885964 0.34568982697 0.80787700163 -0.45331478584 -0.012988084564 0.89125586371 -0.39260931636 -0.30352403683 0.86817687356 
-0.33437117103 -0.49703035831 0.80072263794 -0.29387529257 -0.61980537199 0.72765281094 -0.27046599719 -0.70199792911 0.65882247373 
-0.26143754595 -0.76025619091 0.59469398328 -0.26449752938 -0.80338534276 0.53349137573 -0.27855365821 -0.83537083615 0.47388123577 
-0.30275145648 -0.85820762229 0.41451324785 -0.33685623141 -0.87211418691 0.3548869177 -0.38019499726 -0.87682893991 0.29431747179 
-0.43209812002 -0.87124622245 0.23285453516 -0.49118789072 -0.85416525956 0.17069319077 -0.55546632251 -0.82442243894 0.10855784974 
-0.62271874453 -0.78095511984 0.04827490037 -0.69017645522 -0.7235977284 -0.0079238949764 -0.75537023611 -0.65282661906 -0.056861338846 
-0.81638701894 -0.56968507547 -0.094716155417 -0.87212144002 -0.47509642633 -0.11699392957 -0.92199382358 -0.36873371111 -0.11816445989 
-0.96466662024 -0.2473819621 -0.090666844123 -0.99452652001 -0.10207637089 -0.022302813806 -0.99074835867 0.084369030439 0.10629937206 
-0.89180960238 0.32740918988 0.31221603977 -0.60164700934 0.58046102273 0.5487129279 -0.18190130638 0.71436570026 0.67571707173 
0.15926433133 0.72467143822 0.6704373046 0.3742330184 0.69660533327 0.61211980657 0.50492037531 0.66988166844 0.54434728335 
0.58600968007 0.65198836245 0.48114844913 0.63616221188 0.64187583204 0.4281273834 0.66630752191 0.63656655278 0.38835204407 
0.68122232928 0.63475941728 0.36471443659 0.68122232928 0.63475941728 0.36471443659 
FrenetBinormal 3 128 double
-0.21100956269 0.79696399604 0.56597115958 -0.21100956269 0.79696399604 0.56597115958 -0.20939241189 0.79295127706 0.5721740033 
-0.2062819875 0.78555803037 0.58339208304 -0.20105847863 0.77391151501 0.60053014504 -0.19289375871 0.75715642361 0.62410427657 
-0.18061005615 0.7342830175 0.6543763885 -0.16249039589 0.70388195209 0.69148179207 -0.13605179267 0.66385362898 0.73538307636 
-0.097742053123 0.61096969961 0.78559691777 -0.042702408422 0.54039176644 0.84032924683 0.034881328848 0.44559590126 0.89455440621 
0.13954605544 0.32009076487 0.93705325391 0.26844286352 0.16392726303 0.94924511137 0.4044075093 -0.0062364452686 0.91455763797 
0.52138628489 -0.15854247805 0.83846325178 0.60339641521 -0.26774993442 0.75114761447 0.65110646558 -0.3297793302 0.68359780855 
0.67156068628 -0.35404207826 0.65089204287 0.66974786977 -0.35220574656 0.65374987803 0.64765129461 -0.3339260464 0.68486582344 
0.60671219702 -0.30686175343 0.73330496676 0.54958735884 -0.27700725971 0.7881755598 0.47966425792 -0.24851247231 0.84152465845 
0.3995481173 -0.22375214718 0.88898609584 0.30925702032 -0.20368514722 0.92890928308 0.20570048425 -0.18872621094 0.96024461888 
0.0832915215 -0.17958153979 0.98021068807 -0.064317732633 -0.17770299903 0.98198007791 -0.23932238711 -0.18513034366 0.953127248 