# vtk DataFile Version 4.2
vtk output
ASCII
DATASET POLYDATA
POINTS 128 float
0 0 0 -0.278734 0.192542 -0.00438992 -0.842352 0.531419 0.0191838 
-1.34919 0.7218 0.113108 -1.79568 0.787217 0.255748 -2.26358 0.827574 0.412214 
-2.74656 0.843058 0.57661 -3.22033 0.813394 0.749309 -3.68595 0.746403 0.924022 
-4.15041 0.655865 1.09363 -4.61345 0.544432 1.25652 -5.07286 0.411775 1.41297 
-5.52777 0.259754 1.56443 -5.97761 0.0908154 1.71305 -6.42111 -0.0932461 1.8629 
-6.85675 -0.290761 2.01865 -7.28309 -0.499503 2.185 -7.69885 -0.717095 2.36617 
-8.10352 -0.941432 2.56361 -8.49719 -1.1708 2.77694 -8.88175 -1.40532 3.0007 
-9.26029 -1.64645 3.22652 -9.63921 -1.89966 3.4399 -10.025 -2.17192 3.62153 
-10.4151 -2.46916 3.73596 -10.8012 -2.79481 3.74487 -11.1605 -3.13721 3.64062 
-11.4664 -3.47934 3.43195 -11.7124 -3.81588 3.14563 -11.9016 -4.1472 2.81499 
-12.0372 -4.47557 2.45845 -12.1231 -4.80408 2.08694 -12.1625 -5.13458 1.70906 
-12.1585 -5.46831 1.3321 -12.1143 -5.8064 0.961864 -12.0337 -6.14993 0.603269 
-11.9199 -6.49987 0.259918 -11.7762 -6.85731 -0.0648977 -11.6059 -7.22465 -0.363765 
-11.4118 -7.6049 -0.627691 -11.1967 -7.99855 -0.856271 -10.9635 -8.4054 -1.04955 
-10.7182 -8.83355 -1.1542 -10.472 -9.2892 -1.08836 -10.2765 -9.69139 -0.830475 
-10.2033 -9.91196 -0.404115 -10.242 -9.95117 0.114622 -10.3321 -9.88964 0.622877 
-10.4446 -9.77238 1.09467 -10.5715 -9.61984 1.55292 -10.7066 -9.44545 2.00618 
-10.8449 -9.25816 2.45322 -10.9825 -9.06552 2.89662 -11.1166 -8.87423 3.34173 
-11.244 -8.69146 3.79274 -11.3612 -8.52494 4.25297 -11.4637 -8.38415 4.72505 
-11.547 -8.28001 5.21086 -11.6061 -8.22497 5.70822 -11.6357 -8.23232 6.21146 
-11.634 -8.3097 6.71016 -11.6017 -8.4596 7.1903 -11.543 -8.67678 7.6418 
-11.4646 -8.9495 8.05836 -11.3724 -9.26621 8.43892 -11.2721 -9.6158 8.78704 
-11.1672 -9.98955 9.10721 -11.0601 -10.381 9.4046 -10.9522 -10.7852 9.68391 
-10.8439 -11.1985 9.94929 -10.7352 -11.6182 10.2043 -10.6256 -12.042 10.4519 
-10.5142 -12.4684 10.6943 -10.3997 -12.896 10.9331 -10.2808 -13.3237 11.1694 
-10.1557 -13.7508 11.4037 -10.0223 -14.1763 11.6363 -9.87833 -14.5995 11.8669 
-9.72118 -15.0192 12.0952 -9.54787 -15.4342 12.3207 -9.35526 -15.8423 12.543 
-9.14003 -16.2408 12.762 -8.89912 -16.6263 12.9779 -8.62988 -16.9941 13.1911 
-8.33057 -17.3393 13.4023 -8.00074 -17.656 13.6128 -7.64143 -17.9386 13.8238 
-7.25566 -18.1821 14.0368 -6.84756 -18.3826 14.2532 -6.42264 -18.5382 14.474 
-5.98634 -18.6484 14.6997 -5.54379 -18.7151 14.9302 -5.09936 -18.7409 15.165 
-4.65626 -18.7299 15.4034 -4.21687 -18.6862 15.6446 -3.78237 -18.6143 15.8879 
-3.35331 -18.519 16.1326 -2.92931 -18.405 16.3781 -2.50963 -18.2772 16.624 
-2.09304 -18.1404 16.8704 -1.67825 -17.9994 17.1174 -1.26393 -17.8589 17.3655 
-0.848937 -17.7236 17.6154 -0.43257 -17.598 17.8681 -0.0145403 -17.4868 18.1248 
0.404618 -17.3942 18.3871 0.82377 -17.3247 18.6566 1.24063 -17.2824 18.9351 
1.65222 -17.2711 19.2245 2.0542 -17.2938 19.5265 2.44167 -17.3527 19.8425 
2.80874 -17.4491 20.1733 3.14911 -17.5835 20.5194 3.45583 -17.7548 20.8802 
3.72229 -17.9608 21.2548 3.94319 -18.1968 21.641 4.11459 -18.4569 22.0366 
4.23597 -18.7329 22.4403 4.30809 -19.0167 22.8505 4.33374 -19.3021 23.2637 
4.31696 -19.5814 23.6797 4.26452 -19.8422 24.11 4.18361 -20.0754 24.5582 
4.08103 -20.2871 24.9923 3.96464 -20.4746 25.4077 3.84682 -20.5906 25.9327 
3.74708 -20.6074 26.5833 3.70434 -20.5936 26.9184 
LINES 1 129
128 0 1 2 3 4 5 6 7 8 9 10 11 12 13 14 15 16 17 18 19 20 21 22 23 24 25 26 27 28 29 30 31 32 33 34 35 36 37 38 39 40 41 42 43 44 45 46 47 48 49 50 51 52 53 54 55 56 57 58 59 60 61 62 63 64 65 66 67 68 69 70 71 72 73 74 75 76 77 78 79 80 81 82 83 84 85 86 87 88 89 90 91 92 93 94 95 96 97 98 99 100 101 102 103 104 105 106 107 108 109 110 111 112 113 114 115 116 117 118 119 120 121 122 123 124 125 126 127 

CELL_DATA 1
FIELD FieldData 2
Length 1 1 double
58.170395906 
Tortuosity 1 1 double
0.70616379785 
POINT_DATA 128
SCALARS MaximumInscribedSphereRadius float
LOOKUP_TABLE default
1.2772 1.17128 1.06535 1.05268 1.04769 1.12476 1.20347 1.22285 1.23891 
1.20207 1.16139 1.10841 1.05428 1.09967 1.15639 1.22479 1.29478 1.33988 
1.38104 1.38643 1.38532 1.37043 1.3527 1.30071 1.24078 1.25171 1.28096 
1.33423 1.394 1.19958 0.930615 0.882145 0.90427 1.05748 1.2565 1.49371 
1.74545 1.89759 2.00857 1.9222 1.74729 1.64371 1.57413 1.62047 1.72836 
1.73587 1.69321 1.67185 1.66121 1.69966 1.7639 1.75366 1.70085 1.62253 
1.52853 1.44946 1.38026 1.41789 1.53128 1.65188 1.77794 1.84118 1.85407 
1.85816 1.85474 1.82788 1.77974 1.72952 1.67731 1.71201 1.83715 1.97062 
2.11339 2.18342 2.16644 2.11027 2.00378 1.88146 1.73734 1.66975 1.71536 
1.78289 1.88523 1.98195 2.06904 2.12552 2.12582 2.09526 2.00383 1.89388 
1.74458 1.67918 1.80637 1.9149 1.97704 1.97745 1.81075 1.66956 1.60387 
1.55705 1.57159 1.62027 1.79146 1.94294 2.01583 2.05978 1.9748 1.93903 
2.15011 2.35205 2.50198 2.5946 2.31404 2.05429 1.95198 1.86 1.86 
1.85868 1.84312 1.81646 1.63819 1.46664 1.41185 1.35975 1.44612 1.52675 
1.53838 1.55 
TEXTURE_COORDINATES TCoords 2 float
0 0 0.00787402 0 0.015748 0 0.023622 0 0.0314961 
0 0.0393701 0 0.0472441 0 0.0551181 0 0.0629921 0 
0.0708661 0 0.0787402 0 0.0866142 0 0.0944882 0 0.102362 
0 0.110236 0 0.11811 0 0.125984 0 0.133858 0 
0.141732 0 0.149606 0 0.15748 0 0.165354 0 0.173228 
0 0.181102 0 0.188976 0 0.19685 0 0.204724 0 
0.212598 0 0.220472 0 0.228346 0 0.23622 0 0.244094 
0 0.251969 0 0.259843 0 0.267717 0 0.275591 0 
0.283465 0 0.291339 0 0.299213 0 0.307087 0 0.314961 
0 0.322835 0 0.330709 0 0.338583 0 0.346457 0 
0.354331 0 0.362205 0 0.370079 0 0.377953 0 0.385827 
0 0.393701 0 0.401575 0 0.409449 0 0.417323 0 
0.425197 0 0.433071 0 0.440945 0 0.448819 0 0.456693 
0 0.464567 0 0.472441 0 0.480315 0 0.488189 0 
0.496063 0 0.503937 0 0.511811 0 0.519685 0 0.527559 
0 0.535433 0 0.543307 0 0.551181 0 0.559055 0 
0.566929 0 0.574803 0 0.582677 0 0.590551 0 0.598425 
0 0.606299 0 0.614173 0 0.622047 0 0.629921 0 
0.637795 0 0.645669 0 0.653543 0 0.661417 0 0.669291 
0 0.677165 0 0.685039 0 0.692913 0 0.700787 0 
0.708661 0 0.716535 0 0.724409 0 0.732283 0 0.740157 
0 0.748031 0 0.755906 0 0.76378 0 0.771654 0 
0.779528 0 0.787402 0 0.795276 0 0.80315 0 0.811024 
0 0.818898 0 0.826772 0 0.834646 0 0.84252 0 
0.850394 0 0.858268 0 0.866142 0 0.874016 0 0.88189 
0 0.889764 0 0.897638 0 0.905512 0 0.913386 0 
0.92126 0 0.929134 0 0.937008 0 0.944882 0 0.952756 
0 0.96063 0 0.968504 0 0.976378 0 0.984252 0 
0.992126 0 1 0 
FIELD FieldData 7
Curvature 1 128 double
0 0.035740783003 0.065017886536 0.089411071934 0.10744714728 0.11848023161 0.12282530597 0.12160506026 0.11638710102 
0.10877112852 0.10010798713 0.091400440534 0.083296965085 0.076173601359 0.070276606878 0.066013495517 0.064423376008 0.067422667084 
0.07724050057 0.095132706535 0.12096902909 0.15371033098 0.19147704183 0.23109918902 0.26778811556 0.29567113053 0.30961229947 
0.30757061911 0.29157027501 0.26662346891 0.23834270901 0.21136851479 0.1889182644 0.17310675193 0.16570930542 0.16852081131 
0.18369485153 0.21449787123 0.26644749492 0.34902355507 0.47651371693 0.66282428508 0.89622367275 1.0910355388 1.1080392277 
0.92466281337 0.67112426395 0.45481764358 0.29958808792 0.19229672852 0.11581769179 0.057771145597 0.010515406366 0.031643881794 
0.070142045684 0.10675383314 0.14143618315 0.17313047829 0.19990779644 0.21942393193 0.22971811195 0.22996302538 0.22093190552 
0.20467395606 0.18385455533 0.16101927137 0.13815235136 0.11655932334 0.096993546743 0.079894584996 0.06551923019 0.054190291891 
0.046424082523 0.042853843418 0.043724261806 0.048425248125 0.05596645403 0.065428010144 0.076211401242 0.087880777323 0.10006568536 
0.11239811076 0.12445577225 0.13577099569 0.14576486872 0.15387288892 0.15955639548 0.16234990916 0.16200408523 0.15839436699 
0.15170703154 0.14221332863 0.13040059892 0.11675265589 0.10169898 0.085766466231 0.069311095944 0.05269992625 0.036474736875 
0.022128645122 0.016134922478 0.025375078902 0.04039248515 0.0566958494 0.073341577938 0.090010371432 0.1064907219 0.12253157951 
0.13785581322 0.15195989973 0.1643005532 0.17425058284 0.18111611301 0.18436341531 0.18370443608 0.17924626473 0.17154747938 
0.16152390744 0.15019417118 0.13843600847 0.12662100285 0.11445421066 0.101068683 0.085474353515 0.066979999354 0.04558394183 
0.021969746874 0 
Torsion 1 128 double
0 0 -0.020828463239 -0.027620803409 -0.033470796282 -0.037398385773 -0.038267692133 -0.034915748785 -0.026639141003 
-0.014135208323 -0.00036516572995 0.0083707948657 0.00214814023 -0.031120978426 -0.10276000128 -0.21534859448 -0.34667651382 -0.43276352592 
-0.41489910709 -0.32077977598 -0.2154753603 -0.12991809736 -0.06618143764 -0.018060413493 0.02077645706 0.055051428646 0.088179765951 
0.12286910746 0.1613654367 0.20524016182 0.2555825538 0.3128142085 0.37506220288 0.4356578489 0.48092660301 0.49503326972 
0.47175602105 0.41999304708 0.35595226921 0.29167808568 0.23176219864 0.1774476927 0.13035684066 0.093489030872 0.067606168487 
0.048499890438 0.031575692316 0.015774739798 0.0012625490434 -0.013309203518 -0.034258626302 -0.10138820263 -2.3119742972 -0.24292210216 
-0.063016523082 -0.040310532285 -0.034431389823 -0.032909833538 -0.032725826647 -0.0328353991 -0.033013039501 -0.032718386101 -0.031471589577 
-0.028887139707 -0.024026415231 -0.015669553288 -0.0018421325704 0.020335368179 0.055397065222 0.11013222096 0.19242139528 0.30594801701 
0.43109495159 0.50512634774 0.47363485695 0.37363639357 0.27288975434 0.19967846906 0.15382072267 0.12661984944 0.11139853355 
0.1033084231 0.098891680909 0.096224575053 0.094177480351 0.092093569937 0.089361985056 0.085789866439 0.081573753295 0.077000213083 
0.072071115132 0.067319462446 0.063810487683 0.062624472257 0.065834313392 0.077971694741 0.10846548306 0.18399265718 0.39501666124 
1.1115397847 2.1050006575 0.80641930415 0.2704283289 0.093077421813 0.015303393902 -0.027064630341 -0.054326122467 -0.073701871057 
-0.088467145623 -0.10147655956 -0.1137311797 -0.12626663621 -0.14020468269 -0.15653274254 -0.17647500487 -0.19987754997 -0.22663361747 
-0.25431043847 -0.27834209168 -0.29251676312 -0.29038518608 -0.26995913131 -0.23396431408 -0.18893540008 -0.14137334971 -0.097007852551 
0 0 
Abscissas 1 128 double
0 0.50293336558 1.0058667312 1.5087995622 2.0117323491 2.5146653861 3.0175984281 3.5205317441 4.0234650754 
4.5264004407 5.0293359537 5.5322681796 6.0352001005 6.538131962 7.0410638168 7.5439973533 8.0469311178 8.5498659032 
9.0528008502 9.5557331634 10.058664998 10.561597812 11.064530828 11.567458736 12.070385459 12.573324261 13.076266186 
13.579210978 14.082156545 14.585086324 15.088011472 15.59094266 16.093875782 16.596808079 17.099740086 17.60267731 
18.105616518 18.608544446 19.11146771 19.614399658 20.117335502 20.620270766 21.123205754 21.626139614 22.129072876 
22.632006783 23.134941012 23.63787386 24.140806013 24.643735106 25.146662592 25.649591752 26.15252187 26.655454915 
27.158389759 27.661328932 28.164270969 28.667203109 29.170128232 29.673058214 30.175991874 30.67892874 31.181868176 
31.684803855 32.187736337 32.690665776 33.193592451 33.69653263 34.199485926 34.702420064 35.20533427 35.708258894 
36.211195139 36.714127144 37.217054079 37.719990322 38.222938511 38.725871602 39.228783901 39.731712902 40.234666612 
40.737611279 41.240541576 41.743476943 42.246420969 42.749357846 43.252281602 43.755208402 44.258141213 44.761069206 
45.263986962 45.766914343 46.269863819 46.772804543 47.275723507 47.778647932 48.281587141 48.784524625 49.287457002 
49.790391582 50.29333332 50.796271974 51.29919956 51.802126577 52.305051323 52.80797643 53.310903146 53.813834431 
54.316788634 54.819741809 55.322689133 55.825631525 56.328541795 56.83145328 57.334373946 57.837296103 58.340231553 
58.843166585 59.346097114 59.849028543 60.351972277 60.854914997 61.357840114 61.860765641 62.363712305 62.866658401 
63.369597644 63.872536887 
ParallelTransportNormals 3 128 double
0.026744278024 0 0.99964230782 0.12280460409 -0.041367491867 0.98550550281 0.21886493016 -0.082734983734 0.9713686978 
0.26764544227 -0.092343162604 0.95798092602 0.3125300913 -0.099334369785 0.94465487468 0.33342762465 -0.098970805685 0.93730802297 
0.35384395676 -0.098459698832 0.9300811189 0.35460131551 -0.098485885621 0.92981627198 0.35425853242 -0.098542140064 0.92994103087 
0.35016036026 -0.099638298887 0.93136292377 0.34578968499 -0.10080991651 0.93287894088 0.3481236973 -0.099943574667 0.93209991114 
0.35107974022 -0.098888160148 0.93110795733 0.36714640791 -0.091891127689 0.92539246793 0.38470450265 -0.084218193821 0.91913964268 
0.41322461571 -0.069861328023 0.90723185047 0.44323103711 -0.054598207237 0.89455731765 0.47116768848 -0.038900814991 0.88049856731 
0.49877679229 -0.02313469793 0.86622076022 0.50434200127 -0.019880138623 0.86327271541 0.50590093897 -0.018899437669 0.8623837487 
0.45845027757 -0.052255472665 0.88404477425 0.40088274878 -0.092699511031 0.91036070997 0.2805552332 -0.19121779207 0.92440644988 
0.1456674908 -0.30320921402 0.93560552198 0.031155153998 -0.4193421244 0.89173416029 -0.078088519938 -0.53654593891 0.83362271157 
-0.12960199134 -0.60717434385 0.77929522989 -0.16550768801 -0.66521075242 0.72599077086 -0.17914845259 -0.69640492797 0.69406221192 
-0.18625901898 -0.71972640484 0.66840310232 -0.18808230274 -0.72939595476 0.65768242412 -0.18821277497 -0.73469461304 0.65174453337 
-0.18940462832 -0.73044203082 0.65609739884 -0.19096752273 -0.72285049487 0.66404774036 -0.19714720029 -0.7056296672 0.6800103294 
-0.20508391059 -0.68474417084 0.69902218038 -0.22206688788 -0.64912737679 0.72559815043 -0.24278885552 -0.6074218635 0.75530051153 
-0.28215589229 -0.5352312387 0.78985448937 -0.32988750494 -0.44936434236 0.826585006 -0.44141096324 -0.24152464668 0.81409161787 
-0.58334861592 0.024468319052 0.77812962819 -0.6911978521 0.26976467796 0.53369668746 -0.78094981628 0.50407337121 0.17858815981 
-0.79548022835 0.57809431966 -0.059922913751 -0.77242735081 0.5720299659 -0.24017786575 -0.7546757247 0.55848598365 -0.33921046232 
-0.7395929066 0.54117653347 -0.397353304 -0.73126335862 0.53102706143 -0.42776474388 -0.72648064825 0.52463803124 -0.44361156891 
-0.72708508493 0.5256227723 -0.44147109853 -0.73076900013 0.53082261459 -0.42904847148 -0.7389728444 0.5423631395 -0.39723350685 
-0.74995522649 0.55780147477 -0.35349748276 -0.7629863009 0.5745027344 -0.28500106244 -0.77737194112 0.5920390214 -0.20013342524 
-0.7878116033 0.59815745436 -0.0917622175 -0.79545304778 0.59617912629 0.033276114659 -0.79446222997 0.57361604018 0.15923688688 
-0.78693929653 0.5354762703 0.28589567833 -0.77513055135 0.48835658732 0.39000503978 -0.75988676015 0.43403957123 0.47604120193 
-0.74604466033 0.38507832797 0.54016850934 -0.73339503838 0.34067346619 0.58565703137 -0.7232703239 0.30453580379 0.61892167682 
-0.71543779654 0.27590335421 0.64108911862 -0.70933882356 0.25328308245 0.65754425138 -0.70492387926 0.23650322736 0.66845026933 
-0.7013727839 0.22296035351 0.67694556762 -0.69872043296 0.21278521986 0.68293276441 -0.69626656911 0.20352102823 0.68827548007 
-0.69403413317 0.19527306386 0.69289922647 -0.69139341413 0.18599193442 0.69804924998 -0.68826429791 0.17547491025 0.70382881768 
-0.68412093916 0.16269533505 0.71082175832 -0.67867588633 0.14701196788 0.71937196001 -0.6715400518 0.1286376663 0.72938435774 
-0.66207564116 0.1065573596 0.74141051915 -0.65033725466 0.082443843949 0.75464584951 -0.63523457037 0.055322239866 0.76967011904 
-0.61789596658 0.028021497456 0.78517418871 -0.59700459696 0.00043611307449 0.80144063714 -0.5751272504 -0.025013537892 0.81721501612 
-0.55156609274 -0.04681587062 0.83214905902 -0.52938116121 -0.06512957879 0.84565604554 -0.50972212371 -0.077040345045 0.85654384534 
-0.49307619001 -0.08619660549 0.86565340431 -0.48237735218 -0.089916176316 0.87125317096 -0.47422692227 -0.092565334322 0.87551997979 
-0.47149274355 -0.092939493626 0.87695379072 -0.47003336831 -0.09321588526 0.87771178881 -0.47150024839 -0.093267855507 0.87691848827 
-0.47330062232 -0.093434979424 0.87592911212 -0.47593029951 -0.093888457393 0.87445215233 -0.47840716774 -0.094370502871 0.87305094998 
-0.48047042348 -0.094929872864 0.87185480247 -0.48244830662 -0.095489449348 0.87070285681 -0.48417359322 -0.096049636792 0.86968169354 
-0.48614090447 -0.096691180662 0.86851204244 -0.48889493065 -0.097597178226 0.86685972316 -0.49245703782 -0.098707342737 0.86470753003 
-0.49891931564 -0.10055025432 0.86076130943 -0.50682267801 -0.10256643742 0.85586975675 -0.52047088426 -0.10527336262 0.84720966372 
-0.53606436853 -0.10780826371 0.83709058026 -0.56032645325 -0.10957658627 0.82046990426 -0.58657716099 -0.11049531047 0.80191344419 
-0.62280228247 -0.10715267113 0.77364759665 -0.66039787796 -0.10219374476 0.74315549048 -0.70578665846 -0.088043820393 0.70000378968 
-0.75140978475 -0.071792621887 0.65463835949 -0.79855914555 -0.041856359078 0.59485547255 -0.84452997601 -0.010172054617 0.53362822595 
-0.88158941745 0.034729965606 0.46147953749 -0.91681801834 0.080267581498 0.38901201327 -0.93572956114 0.13146983676 0.31370291904 
-0.95318251378 0.18232669668 0.2387822196 -0.95488439973 0.22945369126 0.16805572926 -0.95588081795 0.27573105799 0.098022761428 
-0.94723630435 0.31039739881 0.037467481846 -0.93853778596 0.34413202284 -0.022073295329 -0.92890124998 0.361683508 -0.063993016913 
-0.91939815693 0.37894307743 -0.1053675849 -0.91677998181 0.38114140914 -0.11861524036 -0.91436263048 0.38317112061 -0.13084675128 
-0.91436263048 0.38317112061 -0.13084675128 -0.91436263048 0.38317112061 -0.13084675128 
FrenetTangent 3 128 double
-0.94989460593 0.23026556701 0.21137172534 -0.94989460593 0.23026556701 0.21137172534 -0.95307855118 0.20795312402 0.21999266692 
-0.95697153611 0.17347044099 0.23262305382 -0.96020815028 0.12905150317 0.24768128243 -0.96154576275 0.07750264384 0.26348261105 
-0.96016894705 0.021869197026 0.27856297555 -0.95580333711 -0.034965358234 0.29192020228 -0.94863826009 -0.09061900954 0.30310665879 
-0.93914324287 -0.14339340601 0.31216710346 -0.92788386419 -0.19228670273 0.3194641741 -0.91540011285 -0.23689448573 0.32545911575 
-0.90216144501 -0.27727041696 0.33049333277 -0.88857799902 -0.31379810272 0.33460408006 -0.87503375494 -0.34709944607 0.33739872888 
-0.86191401805 -0.37797579854 0.33799189517 -0.84959519671 -0.40736964881 0.33501935906 -0.8383851205 -0.43632055723 0.32670286358 
-0.82839905352 -0.46589576173 0.31096004138 -0.81937660923 -0.49707947944 0.28554152653 -0.81047023341 -0.53060234455 0.248191766 
-0.80003634905 -0.5667218541 0.1968963694 -0.78551626986 -0.6049721569 0.13028000296 -0.76354763422 -0.64394904256 0.048214529533 
-0.73047217727 -0.68129235209 -0.047446066424 -0.68330006266 -0.71406881743 -0.152337613 -0.62087363897 -0.73960893291 -0.25979713393 
-0.54459122552 -0.75649538231 -0.36212585329 -0.45811595654 -0.76512774385 -0.45244812516 -0.36618137649 -0.7675071398 -0.52615966196 
-0.27326223342 -0.76645058918 -0.58127553374 -0.1827758653 -0.76477658399 -0.61782664207 -0.096907495643 -0.76481700038 -0.63691749326 
-0.016844214285 -0.76827018672 -0.63990404956 0.056901607759 -0.77625173092 -0.62784986842 0.12422382312 -0.78939932545 -0.60117979569 
0.18518859112 -0.80793904467 -0.55941012309 0.2398403314 -0.83164213491 -0.50084725703 0.28795327005 -0.859563773 -0.42217654412 
0.32857773602 -0.88934701059 -0.31796000715 0.35919651452 -0.91566385277 -0.18038174157 0.37435675668 -0.92728453916 -0.00063416194562 
0.36447124282 -0.90376140808 0.22444605237 0.31853515604 -0.81899938914 0.47725816385 0.23565681684 -0.66356822011 0.71003033875 
0.134270098 -0.46726768945 0.87386065661 0.038835282455 -0.27718274064 0.9600320563 -0.037766158776 -0.12086301532 0.99195052739 
-0.09413213173 -0.0031496555717 0.99555473051 -0.13329914505 0.080774071819 0.98777876432 -0.15870147846 0.13704395716 0.97776929515 
-0.17299926583 0.17046366717 0.97005844782 -0.17801655061 0.18422162177 0.96662945423 -0.1749443502 0.18022529923 0.96794282675 
-0.16455776767 0.15955247908 0.97337749487 -0.14742044917 0.1228827047 0.98141074584 -0.12407563307 0.07093581635 0.98973397801 
-0.095231867944 0.0049244394435 0.9954429372 -0.061930680041 -0.073053952261 0.9954032906 -0.02562874229 -0.15979061643 0.98681818309 
0.011866844877 -0.25108330028 0.96789273905 0.048611845503 -0.34225877549 0.93834738721 0.082858305591 -0.42894480317 0.89952257172 
0.11335154449 -0.50777573253 0.85399955083 0.13946775658 -0.57675221451 0.80492585244 0.16119467328 -0.63519455433 0.75534373331 
0.17899157999 -0.68342441455 0.70773800512 0.19361776353 -0.72236135326 0.66385709077 0.20597932371 -0.75317997484 0.62473389831 
0.21702812042 -0.77707891173 0.5908021326 0.22770054589 -0.79514376419 0.56204880186 0.23887891087 -0.80828025908 0.53816344053 
0.25137599907 -0.81719374512 0.51865642774 0.26592737487 -0.822386843 0.5029537869 0.2831851176 -0.82416603183 0.49046563706 
0.30369913603 -0.82264681152 0.48064441979 0.32790628901 -0.8177598696 0.47301824627 0.3561066081 -0.809261995 0.46720777724 
0.38843199249 -0.79675529701 0.46292719071 0.42481664776 -0.77970973841 0.45998210792 0.46495895331 -0.75751257272 0.45824433865 
0.5082924446 -0.72953082006 0.45762820428 0.55397127013 -0.69519011857 0.4580682601 0.60088269381 -0.65407550959 0.45948364066 
0.64768449914 -0.60603903631 0.4617591104 0.69288526763 -0.55130043595 0.46473415542 0.73497344748 -0.49050547451 0.46820765796 
0.77256392252 -0.42475084696 0.47194459805 0.80455436924 -0.35553170549 0.47569893139 0.83024209553 -0.28463705207 0.47924921638 
0.84939233203 -0.21399479317 0.4824301968 0.86224249289 -0.14550774703 0.48514469904 0.86943580168 -0.080908868216 0.48737577064 
0.87190436657 -0.021651385179 0.48919729464 0.87073910422 0.03111247752 0.49076004944 0.86706416087 0.07655228734 0.4922798881 
0.86192242106 0.11412788651 0.4940289117 0.85619799988 0.14351251669 0.49631556751 0.8505566927 0.16454696401 0.49947733597 
0.84540913285 0.17719681871 0.50386971087 0.84090263073 0.18150031756 0.50984350575 0.83691172532 0.17755234982 0.51773924624 
0.8330457527 0.16550628827 0.52786593226 0.8286692458 0.14557178225 0.54047769359 0.82292046281 0.11803843603 0.55575969582 
0.81475105319 0.083308470485 0.57379475431 0.80297297003 0.041942541056 0.59453783113 0.78631963693 -0.0052826417461 0.61779731489 
0.76353530416 -0.057336747465 0.64321562224 0.73349909326 -0.11288949703 0.67024998444 0.69535617088 -0.17027186036 0.69820289973 
0.64866511158 -0.22751366985 0.72627205857 0.59354822295 -0.2824094489 0.75362152982 0.53079024897 -0.33265230156 0.77948967784 
0.46184976526 -0.37603092035 0.8033028951 0.38876209613 -0.41063454333 0.82476863691 0.31394370106 -0.43507503824 0.84388924846 
0.23992292762 -0.44861638947 0.86091830269 0.16908856002 -0.45125010738 0.87623193246 0.10349051085 -0.44370417096 0.89017769172 
0.044710395184 -0.42741196517 0.90295071437 -0.0061761511103 -0.40446985857 0.91453047443 -0.048587631066 -0.37754173731 0.92471697221 
-0.082386368677 -0.34969721835 0.93323327295 -0.10778516684 -0.32413490858 0.93985047686 -0.12520771492 -0.30381868772 0.94446663949 
-0.13511993833 -0.291093816 0.94710453095 -0.13511993833 -0.291093816 0.94710453095 
FrenetNormal 3 128 double
-0.14207312326 -0.92041374702 0.36421664149 -0.14207312326 -0.92041374702 0.36421664149 -0.12119306435 -0.9280425023 0.35220640977 
-0.089107114676 -0.93858461623 0.33334492691 -0.048165673298 -0.9500705782 0.30829525516 -0.0011794950906 -0.96051431323 0.27822807707 
0.049019258775 -0.96828804895 0.24498033907 0.1000362452 -0.97233759606 0.21107427351 0.1502304493 -0.97221608125 0.17951797531 
0.19875272842 -0.96798616602 0.15329753858 0.24522167174 -0.96011255634 0.13435107322 0.28921431113 -0.94940622527 0.12240466354 
0.32950289129 -0.93736210274 0.11304925021 0.36356925684 -0.92654897702 0.096562874178 0.38714141001 -0.92023524156 0.057346567853 
0.39350441523 -0.91900302139 -0.024242975446 0.37360790424 -0.91316724465 -0.1629193579 0.3219796491 -0.88004770543 -0.34906323459 
0.25191524635 -0.80571595122 -0.53606017816 0.19241754889 -0.70769009735 -0.67981630827 0.16345576782 -0.61171611031 -0.77400620951 
0.1687444601 -0.52749611704 -0.8326302623 0.20458341489 -0.45255074208 -0.86795360025 0.26573440504 -0.38138116135 -0.88540026866 
0.34652268591 -0.30987780971 -0.88538001513 0.44063289384 -0.23692658511 -0.86585705872 0.54110079745 -0.16454619232 -0.82470266011 
0.64124778358 -0.097275316721 -0.76114308301 0.73583864708 -0.04088195435 -0.67592170499 0.82146639535 -0.00099016204029 -0.57025606607 
0.89554243956 0.017908826594 -0.44461557876 0.95445735451 0.012694248379 -0.29807719551 0.99144281827 -0.017942971892 -0.12930269858 
0.9955722693 -0.072080928877 0.060334039258 0.9545242161 -0.14204068427 0.26212204198 0.86283659662 -0.21324577762 0.45830038824 
0.72996655486 -0.26801835045 0.62874079922 0.57715613362 -0.29268737171 0.7623810726 0.42450029925 -0.28060093803 0.86084993438 
0.28193462306 -0.2289448301 0.9317173032 0.14944180079 -0.13435387022 0.97960001313 0.021772896409 0.0081062929385 0.99973007807 
-0.10583260335 0.1992623983 0.9742145332 -0.22938088822 0.42192220801 0.87713514267 -0.33228343145 0.63155854444 0.70051518622 
-0.39845832179 0.78195637442 0.4793487189 -0.42844131386 0.86334434357 0.26659817141 -0.43433921492 0.89597359724 0.09263238873 
-0.4274493836 0.90325874838 -0.037558726396 -0.41409884982 0.90096456125 -0.12955694478 -0.39611873913 0.89828443725 -0.19019730361 
-0.36627123202 0.90313808271 -0.22402452581 -0.16335247237 0.96315757565 -0.21364328737 0.4676712591 -0.84990842547 0.24277409609 
0.42424985924 -0.87943682203 0.21587712478 0.41026289492 -0.89526784543 0.17372346416 0.40260194346 -0.90805243553 0.11555279939 
0.39640802679 -0.91709203258 0.042460335452 0.38918737487 -0.92013960065 -0.043316308152 0.37941781385 -0.91483364207 -0.13828062004 
0.36612065937 -0.89965198935 -0.23786962994 0.34888874196 -0.87446339066 -0.33703178506 0.328386096 -0.84046163364 -0.43102994599 
0.30574968708 -0.80000110261 -0.51625126118 0.28278201605 -0.75582220799 -0.59056508643 0.26178981825 -0.71041580057 -0.65328055333 
0.2456421447 -0.66552981505 -0.70479075053 0.23823427317 -0.6217907311 -0.7460701829 0.24472599157 -0.57848791013 -0.77811369792 
0.27281394057 -0.53282723336 -0.80104163014 0.3325546207 -0.47900200513 -0.81238199348 0.43451289941 -0.40665513619 -0.8036355769 
0.57925648202 -0.30228392829 -0.75702467247 0.73888671392 -0.16120574898 -0.65426227958 0.86202264533 -0.0054308811444 -0.5068406697 
0.92431574857 0.13202888392 -0.35806252353 0.94108005299 0.23889912084 -0.23936487614 0.93410078889 0.32186311615 -0.15446634148 
0.91553110104 0.39067032515 -0.095809707667 0.88992954332 0.45285908461 -0.054259169007 0.85852485223 0.51219036601 -0.024415303934 
0.8210298143 0.57088231566 -0.0018508638505 0.7770305969 0.6292765497 0.015312592286 0.72607553081 0.68702542406 0.02846735407 
0.66813292342 0.74306637213 0.038088886205 0.60346862896 0.79613282721 0.044700506712 0.53289822325 0.84478837466 0.048498306021 
0.45769415646 0.88771885701 0.049712071396 0.37954422492 0.92389712574 0.048582737545 0.30025796117 0.95276235157 0.045706215977 
0.22180010857 0.97420347759 0.041620861139 0.14603048286 0.98858921542 0.036965676289 0.074468141732 0.99668989894 0.032615046001 
0.0079732477737 0.9995172931 0.030026789839 -0.053019545659 0.99811857227 0.030793562085 -0.10935687032 0.99327003647 0.038153762157 
-0.16352557628 0.98484523688 0.057786203426 -0.22178968583 0.96972285122 0.1022102103 -0.30045384322 0.93156067132 0.20474912389 
-0.43799805536 0.76989184543 0.46413817969 -0.5212120038 0.018023405929 0.8532368979 -0.30266525368 -0.63801278935 0.70804902715 
-0.19790512702 -0.80188866461 0.56374473857 -0.17382216623 -0.85092478978 0.49569431777 -0.1869231934 -0.86747713481 0.46102401278 
-0.22152099763 -0.86982407429 0.4408339 -0.27081474788 -0.86292670805 0.42663435031 -0.33110129633 -0.84784186218 0.41416917836 
-0.39944341119 -0.82457036439 0.40066029928 -0.47338262856 -0.7924693409 0.38457929055 -0.55076027951 -0.75037192262 0.36552030348 
-0.62899702176 -0.69751062268 0.34328075662 -0.70569651904 -0.63280615164 0.31866722057 -0.77819809966 -0.5555787381 0.29281390585 
-0.84395472794 -0.4648983386 0.26760035867 -0.90019642395 -0.35996318627 0.24509774141 -0.9436918444 -0.24066199624 0.22699671008 
-0.97078261578 -0.10698404537 0.21479182231 -0.97734922731 0.038032097077 0.20818752959 -0.96010666935 0.18918802969 0.20592006433 
-0.91899330275 0.33682434374 0.20494065232 -0.85867711615 0.47084131631 0.20244027528 -0.78854816566 0.58273901221 0.19648672748 
-0.71911306753 0.669183383 0.18726984814 -0.65951574473 0.73070687957 0.17637017495 -0.6152397896 0.7705946049 0.16632485138 
-0.58922406102 0.79209242345 0.15938820104 -0.58922406102 0.79209242345 0.15938820104 
FrenetBinormal 3 128 double
0.2784159932 0.31593718195 0.90701060181 0.2784159932 0.31593718195 0.90701060181 0.27740496831 0.3090187893 0.90969987986 
0.27616191117 0.29827323763 0.91365621244 0.27510066531 0.28409788097 0.91848136507 0.27464223077 0.26721825214 0.92366988194 
0.27508672341 0.2488774648 0.92864810457 0.27646470014 0.23094809594 0.93286132226 0.2784174269 0.21583346929 0.93589510627 
0.28019158145 0.20601241104 0.93757749769 0.28088763998 0.20300173181 0.93802581552 0.27999592075 0.20617667678 0.93759984125 
0.2784467126 0.21088718363 0.93701335317 0.27972582138 0.20745540224 0.93739837899 0.29058123883 0.18080120223 0.93961346782 
0.31977883087 0.11210594269 0.94083673235 0.37229710663 -0.013249623303 0.9280190256 0.43981757047 -0.18745774861 0.87830524147 
0.50029363057 -0.36573616879 0.78482057698 0.53999764734 -0.50208238093 0.67551152739 0.56251241117 -0.58674061761 0.58250771234 
0.57573183635 -0.63290930361 0.51764724091 0.58404607365 -0.65513854658 0.47925324061 0.58854076855 -0.66323302116 0.46232209919 
0.58850014986 -0.66318660574 0.46244037409 0.58218869556 -0.65876514574 0.47653415987 0.56720882525 -0.65261257799 0.5023653766 