# vtk DataFile Version 4.2
vtk output
ASCII
DATASET POLYDATA
POINTS 128 float
0 0 0 -0.256536 0.171085 0.133507 -0.770454 0.488 0.397736 
-1.22425 0.708295 0.62325 -1.62439 0.844913 0.812299 -2.05565 0.97153 1.00854 
-2.51355 1.08718 1.2079 -2.97437 1.17556 1.39628 -3.43689 1.24309 1.5729 
-3.90573 1.30131 1.74044 -4.38021 1.3526 1.89873 -4.85823 1.39648 2.04698 
-5.33918 1.43267 2.1862 -5.82287 1.46042 2.31807 -6.30858 1.47627 2.44474 
-6.79526 1.47542 2.56863 -7.28127 1.45103 2.69307 -7.76403 1.39479 2.82203 
-8.23611 1.29365 2.96182 -8.6874 1.13404 3.11923 -9.1024 0.911953 3.29806 
-9.46535 0.629232 3.50024 -9.77555 0.300709 3.72326 -10.0398 -0.0537768 3.96283 
-10.2709 -0.420968 4.21593 -10.4838 -0.791193 4.48011 -10.6913 -1.1585 4.75242 
-10.9048 -1.51901 5.02943 -11.1338 -1.87053 5.30547 -11.3868 -2.21186 5.57322 
-11.6731 -2.54246 5.82078 -12.0017 -2.86204 6.03239 -12.3731 -3.16939 6.17856 
-12.7805 -3.46301 6.22359 -13.1954 -3.74462 6.15379 -13.5766 -4.01853 5.97117 
-13.9001 -4.2961 5.70034 -14.1533 -4.59279 5.37983 -14.3319 -4.91819 5.03955 
-14.437 -5.27736 4.70283 -14.4732 -5.66844 4.38726 -14.447 -6.08453 4.10567 
-14.3674 -6.51702 3.86112 -14.2448 -6.9562 3.6491 -14.0873 -7.39454 3.46076 
-13.9009 -7.82622 3.28385 -13.6901 -8.24546 3.1049 -13.4576 -8.64635 2.90967 
-13.2079 -9.0219 2.68736 -12.9468 -9.36438 2.43043 -12.6796 -9.67144 2.13591 
-12.4117 -9.94582 1.80543 -12.1489 -10.1916 1.45181 -11.8974 -10.4142 1.09715 
-11.6506 -10.6262 0.725497 -11.39 -10.8483 0.287217 -11.1381 -11.1225 -0.107185 
-10.959 -11.5102 -0.185935 -10.8987 -11.9341 0.126472 -10.9647 -12.1239 0.590528 
-11.1097 -12.0904 1.08571 -11.2648 -11.9855 1.56854 -11.4112 -11.8552 2.02635 
-11.5614 -11.6773 2.46598 -11.7173 -11.4528 2.88953 -11.8727 -11.1987 3.29607 
-12.0251 -10.9275 3.68972 -12.1746 -10.6483 4.0787 -12.3193 -10.3779 4.47638 
-12.4555 -10.1394 4.89933 -12.5763 -9.9594 5.35411 -12.6725 -9.86639 5.83853 
-12.74 -9.86895 6.33912 -12.7789 -9.95862 6.83366 -12.7929 -10.1211 7.30981 
-12.7886 -10.3375 7.76413 -12.7709 -10.5954 8.19512 -12.7434 -10.888 8.60275 
-12.7087 -11.2103 8.98669 -12.6693 -11.5591 9.34619 -12.6272 -11.932 9.68031 
-12.5844 -12.3269 9.98793 -12.5423 -12.7413 10.2687 -12.5016 -13.1724 10.5234 
-12.4623 -13.6165 10.7546 -12.4233 -14.0697 10.9675 -12.3829 -14.5285 11.1676 
-12.3387 -14.9897 11.3613 -12.2882 -15.4508 11.5536 -12.2285 -15.9097 11.7485 
-12.1565 -16.3646 11.9487 -12.0689 -16.8139 12.1551 -11.9617 -17.256 12.3682 
-11.8308 -17.6889 12.5868 -11.6723 -18.1104 12.8095 -11.4825 -18.5178 13.0341 
-11.2589 -18.9081 13.2583 -11.0009 -19.2779 13.4801 -10.7092 -19.6243 13.698 
-10.3866 -19.9448 13.9118 -10.0363 -20.2373 14.1221 -9.66219 -20.5 14.3308 
-9.26823 -20.7312 14.5402 -8.85828 -20.9285 14.7535 -8.43639 -21.09 14.9736 
-8.00689 -21.2139 15.2031 -7.57396 -21.2995 15.4435 -7.14143 -21.349 15.6943 
-6.71208 -21.3662 15.9544 -6.2865 -21.3578 16.2212 -5.86428 -21.3308 16.4916 
-5.44329 -21.2919 16.7626 -5.02121 -21.2474 17.031 -4.59575 -21.2015 17.2937 
-4.165 -21.1576 17.5481 -3.72807 -21.1165 17.792 -3.28473 -21.0789 18.0247 
-2.83617 -21.0452 18.2481 -2.38374 -21.0151 18.4644 -1.92858 -20.9866 18.6738 
-1.47283 -20.9604 18.8809 -1.02196 -20.9475 19.1046 -0.581947 -20.9553 19.3562 
-0.158306 -20.9719 19.615 0.238343 -21.0031 19.8854 0.5784 -21.1327 20.288 
0.823088 -21.3854 20.8411 0.917575 -21.5323 21.136 
LINES 1 129
128 0 1 2 3 4 5 6 7 8 9 10 11 12 13 14 15 16 17 18 19 20 21 22 23 24 25 26 27 28 29 30 31 32 33 34 35 36 37 38 39 40 41 42 43 44 45 46 47 48 49 50 51 52 53 54 55 56 57 58 59 60 61 62 63 64 65 66 67 68 69 70 71 72 73 74 75 76 77 78 79 80 81 82 83 84 85 86 87 88 89 90 91 92 93 94 95 96 97 98 99 100 101 102 103 104 105 106 107 108 109 110 111 112 113 114 115 116 117 118 119 120 121 122 123 124 125 126 127 

CELL_DATA 1
FIELD FieldData 2
Length 1 1 double
57.350558807 
Tortuosity 1 1 double
0.89988730514 
POINT_DATA 128
SCALARS MaximumInscribedSphereRadius float
LOOKUP_TABLE default
1.55 1.39673 1.24345 1.11992 0.998563 1.05091 1.10723 1.16219 1.21705 
1.2299 1.23906 1.21639 1.19006 1.12735 1.05952 1.03265 1.01265 1.14511 
1.30754 1.40578 1.4895 1.46665 1.41683 1.35839 1.29749 1.24274 1.18996 
1.21832 1.27563 1.3722 1.48431 1.50014 1.47405 1.45046 1.42808 1.44488 
1.48164 1.46976 1.43088 1.3692 1.29383 1.23796 1.19476 1.17109 1.16118 
1.18683 1.23968 1.30257 1.37381 1.46952 1.58728 1.68469 1.7623 1.77165 
1.70706 1.64853 1.5962 1.52611 1.41711 1.31662 1.21879 1.13052 1.04718 
0.989658 0.946193 0.932787 0.937229 0.966063 1.01071 1.09759 1.21441 1.3629 
1.53555 1.67247 1.78043 1.83863 1.85299 1.86 1.86 1.85666 1.84986 
1.80713 1.72404 1.61432 1.47212 1.3823 1.36185 1.38066 1.45606 1.51135 
1.53504 1.55 1.55 1.55 1.55 1.55 1.55 1.55 1.55 
1.55 1.55 1.55 1.55 1.54112 1.50514 1.45498 1.35641 1.27248 
1.24485 1.24104 1.34147 1.4355 1.49722 1.55005 1.55043 1.55121 1.55485 
1.55877 1.56515 1.56728 1.52198 1.47371 1.38289 1.29789 1.39587 1.49751 
1.65375 1.81 
TEXTURE_COORDINATES TCoords 2 float
0 0 0.00787402 0 0.015748 0 0.023622 0 0.0314961 
0 0.0393701 0 0.0472441 0 0.0551181 0 0.0629921 0 
0.0708661 0 0.0787402 0 0.0866142 0 0.0944882 0 0.102362 
0 0.110236 0 0.11811 0 0.125984 0 0.133858 0 
0.141732 0 0.149606 0 0.15748 0 0.165354 0 0.173228 
0 0.181102 0 0.188976 0 0.19685 0 0.204724 0 
0.212598 0 0.220472 0 0.228346 0 0.23622 0 0.244094 
0 0.251969 0 0.259843 0 0.267717 0 0.275591 0 
0.283465 0 0.291339 0 0.299213 0 0.307087 0 0.314961 
0 0.322835 0 0.330709 0 0.338583 0 0.346457 0 
0.354331 0 0.362205 0 0.370079 0 0.377953 0 0.385827 
0 0.393701 0 0.401575 0 0.409449 0 0.417323 0 
0.425197 0 0.433071 0 0.440945 0 0.448819 0 0.456693 
0 0.464567 0 0.472441 0 0.480315 0 0.488189 0 
0.496063 0 0.503937 0 0.511811 0 0.519685 0 0.527559 
0 0.535433 0 0.543307 0 0.551181 0 0.559055 0 
0.566929 0 0.574803 0 0.582677 0 0.590551 0 0.598425 
0 0.606299 0 0.614173 0 0.622047 0 0.629921 0 
0.637795 0 0.645669 0 0.653543 0 0.661417 0 0.669291 
0 0.677165 0 0.685039 0 0.692913 0 0.700787 0 
0.708661 0 0.716535 0 0.724409 0 0.732283 0 0.740157 
0 0.748031 0 0.755906 0 0.76378 0 0.771654 0 
0.779528 0 0.787402 0 0.795276 0 0.80315 0 0.811024 
0 0.818898 0 0.826772 0 0.834646 0 0.84252 0 
0.850394 0 0.858268 0 0.866142 0 0.874016 0 0.88189 
0 0.889764 0 0.897638 0 0.905512 0 0.913386 0 
0.92126 0 0.929134 0 0.937008 0 0.944882 0 0.952756 
0 0.96063 0 0.968504 0 0.976378 0 0.984252 0 
0.992126 0 1 0 
FIELD FieldData 7
Curvature 1 128 double
0 0.01837445647 0.033531463078 0.046440585577 0.056568520551 0.063801468866 0.068426612257 0.071070632198 0.072582958452 
0.073945872135 0.076220428234 0.080448667133 0.087492692566 0.097777771653 0.11109291752 0.12648562391 0.14227576966 0.15614671851 
0.16544730943 0.16779935828 0.1617568998 0.14738618118 0.12624603841 0.10110035773 0.075966107278 0.058151484201 0.059147835008 
0.079914653514 0.11056695405 0.14505749588 0.18020343881 0.2132003145 0.24109213126 0.26138896124 0.27297454807 0.2765219621 
0.27403831137 0.26746424638 0.25784117462 0.24519709569 0.22917156234 0.20994434148 0.18841030521 0.16606908117 0.14458216873 
0.12512176845 0.10794796511 0.092190904396 0.076300497814 0.059152107677 0.04393092952 0.050332537731 0.097865816606 0.19359612652 
0.37818572281 0.7628547743 1.5685415705 2.7307671034 2.8140453803 1.695291186 0.86155405003 0.45539867768 0.25627086137 
0.14563046719 0.073838325606 0.020335479051 0.029398749215 0.072850322128 0.11535002093 0.15606969825 0.19275886733 0.22224287269 
0.24145713448 0.24889213612 0.24523014364 0.23307545572 0.21572951172 0.19605405088 0.17602651188 0.15663819688 0.13823293167 
0.12077733254 0.10420803896 0.088561709419 0.074217391563 0.061966060008 0.053296455842 0.049980774517 0.052810639703 0.060608745458 
0.07131175579 0.083369123857 0.095668861571 0.10756724165 0.11843151948 0.12790368352 0.13565651508 0.14147960451 0.14532746864 
0.14721722574 0.14729170122 0.14558773689 0.14217076398 0.13699554187 0.12997760017 0.12110950003 0.11052022071 0.09844406285 
0.085369217095 0.071710805166 0.058066134139 0.044827641854 0.032185010642 0.020068400313 0.0080148338596 0.0046205757465 0.018415479836 
0.033678316783 0.050103324636 0.066734380377 0.081775194564 0.092841392745 0.097268308845 0.092979396915 0.079148698095 0.056704034937 
0.028054128645 0 
Torsion 1 128 double
0 0 -0.01707639759 -0.020644484908 -0.020928410817 -0.0154455472 -0.0013306133695 0.024373528999 0.063197975225 
0.11255539329 0.16371852372 0.20308669045 0.21913038505 0.21073021624 0.18638109886 0.1565424462 0.12784063366 0.10239675403 
0.079599644551 0.056725385111 0.029067863599 -0.011790134176 -0.083588901014 -0.22825037796 -0.54254741493 -1.0692370124 -1.0507970037 
-0.49624758952 -0.15519788606 0.018053501344 0.11928708726 0.18973387125 0.24583976813 0.29358576967 0.33244482887 0.35748287307 
0.36136299627 0.3391810666 0.29206783503 0.22616038364 0.14935173043 0.067635634052 -0.015268296956 -0.095243412855 -0.16417352145 
-0.20830521511 -0.20977781583 -0.1494549285 0.008272781936 0.40248512646 1.467439249 1.7659433791 0.69089287039 0.25105882529 
0.075655341545 -0.015636820006 -0.061391970873 -0.072070316354 -0.086940891053 -0.12347796358 -0.14832008979 -0.14784465 -0.14340354961 
-0.15993733038 -0.28015221195 -2.291444575 -0.95824850392 -0.16918646305 -0.079569909947 -0.052755927422 -0.041914173572 -0.037594741736 
-0.036757785133 -0.038084631879 -0.040600062921 -0.043157037142 -0.044527417676 -0.043470943396 -0.038373225396 -0.027453678961 -0.0090054267415 
0.019851171119 0.063311484507 0.12942252317 0.22957048769 0.3736116217 0.5367398873 0.61513361117 0.52975142464 0.36925927038 
0.23499957578 0.1467981397 0.094553191906 0.066501824765 0.054474852379 0.053077599435 0.058467737452 0.068073446353 0.079107039896 
0.089543483516 0.097410300939 0.10094910425 0.099258236614 0.091616518478 0.078570176658 0.060629746797 0.037965499601 0.01098911542 
-0.020552581807 -0.056121446695 -0.094821052007 -0.13444611228 -0.16718785126 -0.18116712515 -0.10114638862 0.14301372927 -0.14951849367 
-0.13524513801 -0.10908542207 -0.083863140334 -0.062847145349 -0.046382070852 -0.033170980377 -0.023549339735 -0.0163474733 -0.010071012525 
0 0 
Abscissas 1 128 double
0 0.50212228822 1.0042445764 1.506368803 2.0084931707 2.5106126128 3.0127319426 3.5148561616 4.0169807307 
4.519102019 5.0212230192 5.5233428443 6.0254625346 6.5275890221 7.0297164645 7.5318371512 8.0339567034 8.536078019 
9.0381996812 9.5403232355 10.042447218 10.544569093 11.046690436 11.548811048 12.050931453 12.553059405 13.055189772 
13.557306343 14.059417992 14.561542063 15.063671051 15.565793965 16.067914234 16.570049278 17.072191342 17.57430018 
18.076392087 18.578506916 19.080634462 19.582760021 20.084884388 20.587010736 21.08913837 21.591259251 22.09337538 
22.595498606 23.097627263 23.599755006 24.101881991 24.604007138 25.106130629 25.608251858 26.110370888 26.612489802 
27.114608591 27.616722923 28.118832709 28.62094084 29.123045341 29.625159292 30.127276188 30.629404411 31.131538488 
31.633655092 32.135762183 32.637887067 33.140022514 33.642148472 34.144268279 34.646384994 35.148499515 35.650618072 
36.152739709 36.654864877 37.156992908 37.659109054 38.161214726 38.663342191 39.165490477 39.667612085 40.169706069 
40.671813152 41.173934957 41.67606856 42.178216549 42.680347815 43.182456932 43.684571162 44.186692763 44.688813895 
45.190934289 45.69305085 46.195160836 46.697277843 47.199408016 47.701534084 48.203651724 48.705781971 49.207940634 
49.710079015 50.212167086 50.714264691 51.216388479 51.718513685 52.22064322 52.722770959 53.224892568 53.72701208 
54.229123528 54.731241236 55.233386356 55.735524412 56.237626841 56.739731851 57.241852118 57.743973719 58.246104727 
58.748233423 59.250342138 59.75245349 60.254594251 60.756733668 61.258853759 61.760974182 62.263105024 62.765233051 
63.267319186 63.76940532 
ParallelTransportNormals 3 128 double
0.45844644576 0 0.88872203549 0.44912146946 0.0048102944103 0.89337900318 0.43979649316 0.0096205888206 0.89803597086 
0.42532641723 0.014635251159 0.90476738034 0.41048181001 0.019664790212 0.91164979629 0.39093551451 0.023947909254 0.91983889471 
0.37128195377 0.028213999324 0.92805780404 0.35050775358 0.031220373436 0.93576868161 0.32965328677 0.034136519471 0.94344317102 
0.30969851596 0.036162169263 0.94991247183 0.28982275504 0.038109617074 0.95627593488 0.27441511661 0.039131577403 0.96068880671 
0.25951997914 0.040047382806 0.96487794253 0.25270501981 0.040179636284 0.96669086122 0.24702520701 0.040201812207 0.96816995625 
0.25559819541 0.041212315108 0.96583695532 0.26656496984 0.042388809471 0.96286370536 0.30065413928 0.052962268947 0.9513141116 
0.33928828113 0.065382809889 0.93807873892 0.38892365736 0.096965446645 0.91361570312 0.44104658239 0.13288092885 0.8866139195 
0.47858060406 0.17250037965 0.85890950523 0.51242308787 0.21305707297 0.83102729913 0.53106272593 0.24016004611 0.81197911419 
0.54536888415 0.26342811713 0.7954490139 0.54863512493 0.26873407798 0.79169510334 0.54836993736 0.26829435227 0.7920280167 
0.53219388456 0.24631958625 0.80890151168 0.5103409498 0.21666127317 0.83167656688 0.45062807338 0.15478768709 0.87205068959 
0.37592763549 0.080161086524 0.91939173022 0.23758365315 -0.031141728659 0.94962569997 0.071529793733 -0.15841306677 0.97241139142 
-0.086107188035 -0.2782155587 0.93697053417 -0.23974497485 -0.39446930332 0.87386391662 -0.32359018775 -0.47060486064 0.81623101183 
-0.37187499091 -0.52629957307 0.76138704943 -0.39008631959 -0.54915511942 0.73906976143 -0.39161262124 -0.5537912088 0.73479855729 
-0.39268968565 -0.54127301907 0.74306605428 -0.39349701543 -0.51845491903 0.75886213911 -0.39600331734 -0.50113750978 0.76930346378 
-0.39961192131 -0.48738897767 0.77627059187 -0.39639355604 -0.49281565516 0.77433388593 -0.38837160731 -0.51173436934 0.76613227555 
-0.36704610314 -0.55093643679 0.74687993367 -0.33554113262 -0.60565869453 0.71917191619 -0.29365665911 -0.66712264098 0.67895265081 
-0.24314243799 -0.73419177604 0.62833125808 -0.19704117718 -0.78923073019 0.57731183566 -0.15491645151 -0.83342924306 0.52593374718 
-0.12399851844 -0.86436684796 0.48611177265 -0.10397661576 -0.88241126731 0.45752546325 -0.11516791388 -0.86929636656 0.47422242933 
-0.16017208913 -0.82242695697 0.53997421166 -0.29480531264 -0.53886391059 0.5906373076 -0.52087147907 -0.013843477259 0.62590803879 
-0.66411811594 0.43383080101 0.49463006198 -0.62582182665 0.71195995637 -0.0017277452048 -0.58939390101 0.76753720523 -0.21471316461 
-0.55354813469 0.7537699952 -0.33940320519 -0.52471085897 0.73016623517 -0.43055275616 -0.49949509287 0.70147961745 -0.50437087128 
-0.48065260943 0.67565086466 -0.55698853918 -0.46528048885 0.65137826883 -0.59806219619 -0.46043880757 0.64393474277 -0.61100274763 
-0.46184931735 0.64648306573 -0.60723995497 -0.47845461197 0.6747077154 -0.55441274687 -0.50490800535 0.71957379857 -0.46978573283 
-0.53602395322 0.75784714633 -0.33416482237 -0.5704462394 0.79144541442 -0.16238281743 -0.59314387251 0.79193571238 0.0012768235475 
-0.60689092388 0.76715143795 0.15873586465 -0.61298077795 0.73218000779 0.28167858976 -0.6128593578 0.68894508184 0.37662278028 
-0.61078879084 0.64601622406 0.45308283099 -0.60700050148 0.60335709464 0.51325338466 -0.60277883292 0.56089762976 0.56496660711 
-0.59814315479 0.51862890553 0.60860049387 -0.59356318721 0.47624411972 0.6470542652 -0.58904091153 0.43373914459 0.68014368921 
-0.58495333171 0.3933635728 0.70828034378 -0.58135424294 0.35538092572 0.73085130585 -0.57836912625 0.32319046635 0.74865559489 
-0.57613264577 0.29806261054 0.76064772392 -0.57437353723 0.27893173784 0.76953879622 -0.57324672383 0.26774407024 0.77432241499 
-0.57233664916 0.25935811167 0.77791331482 -0.57173912337 0.25501236774 0.77978425002 -0.57083970639 0.24977200832 0.78212577238 
-0.56946584067 0.24312568144 0.78520686413 -0.56681785709 0.2333555396 0.78998310518 -0.56198459207 0.21822764004 0.79766675248 
-0.55485437279 0.20022323444 0.80718947234 -0.5434167346 0.17682459141 0.8201609574 -0.52982430657 0.15295549939 0.83381257418 
-0.51180729484 0.1281204009 0.84886075395 -0.49362575499 0.10544697059 0.86301168865 -0.4750733776 0.08764582388 0.87514028136 
-0.45878273966 0.072886841506 0.88549731797 -0.44810239784 0.065674016967 0.89145996937 -0.44109471753 0.060761053776 0.89539765379 
-0.44417216739 0.062163510904 0.89377477795 -0.45049566404 0.064281334688 0.89037295263 -0.46673202838 0.068583764996 0.88153852208 
-0.48377196209 0.072354327671 0.87207463865 -0.50355585175 0.074308716896 0.86046135651 -0.521608205 0.075801227098 0.84977133701 
-0.5330027022 0.075517786166 0.8426313149 -0.54176922486 0.0753326342 0.83714245549 -0.53903109404 0.075577768172 0.8388819974 
-0.53415699909 0.076047840964 0.84189647821 -0.51850728953 0.077652695939 0.85134283217 -0.50197933476 0.079308068852 0.86113860291 
-0.4802613661 0.081261978878 0.87299926151 -0.45924501767 0.083118802168 0.88436954736 -0.44318032763 0.084290439461 0.89227904596 
-0.42878291089 0.085340493771 0.89936767534 -0.42879117042 0.085340039391 0.89936378055 -0.43186004101 0.085309208794 0.89773998008 
-0.46906932196 0.084939538496 0.87804650536 -0.5085085133 0.085097420304 0.85625295523 -0.58000870129 0.092840291366 0.80426513753 
-0.65271688466 0.10207038728 0.74914172976 -0.76335168719 0.15799388253 0.59557230772 -0.86702209318 0.21039702625 0.45166999157 
-0.86702209318 0.21039702625 0.45166999157 -0.86702209318 0.21039702625 0.45166999157 
FrenetTangent 3 128 double
-0.85707274585 0.33280366608 0.39327856305 -0.85707274585 0.33280366608 0.39327856305 -0.86255818625 0.32146224364 0.39071140403 
-0.87076969969 0.30394811395 0.38649149296 -0.88090823198 0.28131836071 0.38060565781 -0.89210846475 0.25477089893 0.37314109421 
-0.90356413954 0.2254558442 0.36433708027 -0.91460628757 0.19429135839 0.3546071161 -0.92472292092 0.16181977073 0.34453139381 
-0.93352667992 0.12813396506 0.33482775404 -0.94069063235 0.092881064677 0.32630391053 -0.9458669681 0.055340518252 0.31980166618 
-0.94860236819 0.014563128381 0.31613519631 -0.94826483702 -0.030443434023 0.31601739857 -0.94400012797 -0.080492469645 0.31997612525 
-0.93475095736 -0.13597027261 0.32825711368 -0.91938164247 -0.19658404816 0.34072291895 -0.89694299175 -0.26116591172 0.35677112565 
-0.86706735955 -0.32762598739 0.3753070828 -0.83038151569 -0.39316570032 0.39482562036 -0.78874917679 -0.45476978913 0.41359300648 
-0.74515750548 -0.50984959354 0.42987635896 -0.70321870981 -0.55678721915 0.44212152036 -0.6664812195 -0.59515832183 0.44898703323 
-0.63781634208 -0.62560077423 0.44923711451 -0.61902949784 -0.64946715397 0.44158226496 -0.61069615064 -0.66843734891 0.42454884545 
-0.61212739237 -0.68419753539 0.39645149524 -0.62136538857 -0.69821719452 0.35552468714 -0.63518142261 -0.71161762942 0.30024141931 
-0.64914614856 -0.72511108367 0.22983297011 -0.65792088943 -0.73900755193 0.14494116544 -0.65589682292 -0.75330968331 0.048206625331 
-0.638192964 -0.76786875649 -0.055563598744 -0.6017175323 -0.78253382029 -0.15992758179 -0.54584972593 -0.7971784055 -0.25798191121 
-0.47242573551 -0.81157574859 -0.34374224171 -0.38513529179 -0.82520128533 -0.41317507876 -0.28869500922 -0.83713057591 -0.46461552979 
-0.18808113305 -0.84614217718 -0.49866712684 -0.087965144024 -0.85098142084 -0.51777674226 0.007723760202 -0.85068162958 -0.52562449393 
0.096080937223 -0.84478742888 -0.52640540795 0.1752906718 -0.83341070492 -0.5241180948 0.24451345942 -0.81716783946 -0.52196732687 
0.30363984685 -0.79708971253 -0.52196823044 0.35303616699 -0.77456858275 -0.52479422198 0.39337797549 -0.75135323431 -0.52983212972 
0.42558404575 -0.72954527569 -0.53538949441 0.45079438819 -0.71153920569 -0.53897715939 0.47034855138 -0.69989557042 -0.53751133079 
0.48569795332 -0.69720252377 -0.52726287465 0.49819932223 -0.70601266548 -0.50333244632 0.50876105395 -0.72880630248 -0.45826145752 
0.51697922166 -0.76752295458 -0.37899999811 0.51832989615 -0.8205709514 -0.24082656099 0.49529999213 -0.86872198099 -0.00019376144885 
0.40202310084 -0.83524317861 0.3751616438 0.21053183289 -0.61787033157 0.75757019523 0.017113313537 -0.3198386965 0.94731744559 
-0.1072893539 -0.090320934492 0.99011672207 -0.17760945042 0.060581374245 0.98223458512 -0.21691834652 0.15893783867 0.96316415755 
-0.23832150795 0.22274363895 0.94529790551 -0.24847540164 0.26136230765 0.93271095143 -0.25080029417 0.27922573019 0.92689384724 
-0.24705798288 0.2781645336 0.92821702492 -0.23809510227 0.25869603611 0.93615548024 -0.22426584483 0.22085535091 0.94917213656 
-0.20571481765 0.16489675081 0.96461934221 -0.18266555605 0.091974204295 0.97886364749 -0.15568334537 0.004708793791 0.98779579025 
-0.12582966929 -0.092651692734 0.98771582865 -0.09462170996 -0.19470324494 0.97628754904 -0.063772757064 -0.29589183153 0.95309026828 
-0.034833966975 -0.3915852114 0.91948225484 -0.0089055271528 -0.47871300865 0.87792627648 0.013464455996 -0.55578497785 0.83121703954 
0.032224629857 -0.62252285655 0.78193789159 0.04771081669 -0.67938130003 0.73223270013 0.060526682948 -0.72715453192 0.68380026862 
0.071444718194 -0.76673379608 0.63797722388 0.0813402279 -0.79898876732 0.5958193661 0.091135245519 -0.82472298809 0.55814546486 
0.10176569446 -0.84465828142 0.52554365287 0.11414061297 -0.8594220457 0.49836298803 0.12911412915 -0.86953297903 0.4766990036 
0.14745201289 -0.87538505522 0.46038995319 0.16979864135 -0.87722963892 0.44903962186 0.19665123504 -0.875166497 0.44205417575 
0.22830832147 -0.86915047869 0.43869437623 0.26483898728 -0.85900288157 0.43814878782 0.30604678348 -0.84444399566 0.43960175673 
0.35144948146 -0.82513867311 0.44230016066 0.40027093231 -0.80075316441 0.4456204107 0.45146472564 -0.77102206248 0.44911533115 
0.50379033617 -0.7358005119 0.4525404997 0.55588084282 -0.69512823264 0.45584342571 0.60634912399 -0.6492581102 0.45913467107 
0.65389324697 -0.59867377513 0.46261575041 0.69738771759 -0.54407978128 0.46650569445 0.73594718296 -0.48638849172 0.47096494457 
0.76897455277 -0.42670212734 0.47602881395 0.7961947114 -0.36627006039 0.48158096349 0.81766697528 -0.30645409785 0.48734649219 
0.83377536297 -0.24865256242 0.49294071379 0.84519281968 -0.1941988271 0.49793163498 0.85280579604 -0.1442732289 0.50190388489 
0.85760541839 -0.099808010396 0.50453077944 0.86056279532 -0.061454395433 0.50562340985 0.86250527483 -0.029573761144 0.50518317821 
0.86402693933 -0.0042554611144 0.50342759078 0.86543463485 0.014597700726 0.50080914522 0.86672902318 0.027208398253 0.49803664869 
0.86763894158 0.033839702744 0.49604187482 0.86766709516 0.034732543982 0.49593090483 0.86614513737 0.030086435815 0.49888616676 
0.86230277688 0.02006549261 0.50599535274 0.85533709169 0.0048746223106 0.51804893363 0.84451352461 -0.015127106888 0.53532053705 
0.82933981853 -0.03926682205 0.55736306129 0.80982255453 -0.066392884368 0.58290600878 0.78676430936 -0.094791708152 0.60993151548 
0.76196662557 -0.12228461956 0.63596645614 0.73813526105 -0.14648146541 0.6585586661 0.71842926183 -0.16516966595 0.67570583629 
0.70574584163 -0.17666019748 0.68608598707 0.70574584163 -0.17666019748 0.68608598707 
FrenetNormal 3 128 double
-0.43095784971 -0.88142527954 -0.19329978883 -0.43095784971 -0.88142527954 -0.19329978883 -0.42176315821 -0.88339225623 -0.2042889131 
-0.40726660526 -0.88627028272 -0.22058762024 -0.3879748435 -0.88979680644 -0.24028558854 -0.36435390366 -0.89403181083 -0.26067864144 
-0.33653470745 -0.89975013971 -0.27783822049 -0.30416540364 -0.90843000037 -0.28677228188 -0.26616957723 -0.92194282977 -0.28138083588 
-0.22088630923 -0.9411925623 -0.25566736021 -0.16664451049 -0.96427129688 -0.20593803228 -0.10293537673 -0.98563601066 -0.13388787362 
-0.031395985926 -0.9983433015 -0.04821767747 0.044728753266 -0.99827435833 0.038047918928 0.12261504716 -0.98591675457 0.1137264405 
0.20097292241 -0.9642181033 0.17289688753 0.27961646294 -0.93583092448 0.21455795124 0.35821322286 -0.90223717127 0.24010700478 
0.43548991676 -0.86431954096 0.25159543621 0.50910800819 -0.82333212618 0.25086499558 0.57592070048 -0.78192910838 0.23854185424 
0.63245128483 -0.74473186577 0.21302539852 0.67454422641 -0.7189980525 0.16742725919 0.6940851168 -0.71517254151 0.082304838936 
0.66363808293 -0.74241687923 -0.091660636674 0.48853121285 -0.75867275893 -0.4309906019 0.11148530868 -0.60337518309 -0.78962612316 
-0.15806464153 -0.38536820306 -0.90912425838 -0.24204227432 -0.26050747667 -0.93463971242 -0.22718581625 -0.19939357718 -0.95322022968 
-0.15693471434 -0.16797995975 -0.97321848963 -0.048902965429 -0.15013203247 -0.98745575739 0.087227574443 -0.139072812 -0.98643302014 
0.24279829009 -0.13225500184 -0.96101904498 0.4077593834 -0.12879677662 -0.90395999667 0.56963483322 -0.12727113681 -0.81198412208 
0.71499372978 -0.1248478756 -0.68789314166 0.83224284432 -0.11709182743 -0.54190529802 0.91566482352 -0.099662852353 -0.38939086639 
0.96664474568 -0.069604634443 -0.24648150134 0.99169065931 -0.025830330599 -0.12602551431 0.9988534325 0.031398340727 -0.036138131852 
0.99466819713 0.10139302375 0.01883168489 0.98236120982 0.18327022205 0.037127875688 0.96131219356 0.27471666399 0.020239096789 
0.92861152421 0.37020107571 -0.025135644766 0.88377716659 0.46018243186 -0.084676143191 0.83490778226 0.53324400377 -0.1363078412 
0.80212315269 0.57800997472 -0.15000972317 0.81747903628 0.57158344592 -0.070854707677 0.88170599275 0.39822284048 0.2530081257 
0.64424733216 -0.12216339915 0.75499766815 0.29740435598 -0.40614336274 0.86405915188 0.14065700732 -0.45477987281 0.8794264458 
0.052589931473 -0.41344288778 0.90901005366 -0.032975462136 -0.30057726732 0.95318724565 -0.15327267052 -0.087607626117 0.9842928387 
-0.31930606874 0.25612097262 0.9123846129 -0.45573190565 0.62354874224 0.63521287473 -0.48311674784 0.82686879086 0.2878996538 
-0.44578127086 0.89452247717 0.033295591111 -0.39089329024 0.91164487485 -0.12690964428 -0.33328989687 0.91531156662 -0.22610303108 
-0.27333720597 0.91861416416 -0.28536781395 -0.19340609803 0.93013329446 -0.31216363623 0.10738755382 0.9596118773 -0.26002491846 
0.49783463321 -0.78538782532 0.36786769607 0.35068788006 -0.87595144362 0.33125077992 0.31304045629 -0.9060378651 0.28478247792 
0.29929125132 -0.92787092135 0.22244167818 0.29469272314 -0.94471675529 0.14375830827 0.29368121491 -0.95455067796 0.050836475322 
0.29240567758 -0.95486210756 -0.052318976155 0.28850552743 -0.94396505291 -0.16029516378 0.28027577656 -0.92190682777 -0.26745708066 
0.26738754192 -0.89015133803 -0.36896408744 0.25023922405 -0.85109256545 -0.46154282118 0.23036536844 -0.80720580198 -0.54346167324 
0.20959624571 -0.76073952771 -0.61428396102 0.19115794025 -0.71330780806 -0.67427784543 0.1784282725 -0.66614045566 -0.72416865777 
0.17642678933 -0.61981264426 -0.7646606267 0.19116027629 -0.57419575328 -0.79608855392 0.23169421828 -0.5275366988 -0.81732663033 
0.3104796964 -0.4749307569 -0.82343374614 0.44184360484 -0.40538270524 -0.80027438492 0.6264997141 -0.30109915471 -0.7189140472 
0.81764288472 -0.15402741966 -0.55473927846 0.93856451916 0.0050365346932 -0.34506706116 0.9766829862 0.13524501873 -0.16673070913 
0.97191178615 0.22990282671 -0.050320673839 0.9532488926 0.30178973309 0.01547597345 0.9308895457 0.36218024565 0.047645811765 
0.90644196813 0.41808751295 0.05971423561 0.87893417173 0.47307708918 0.060603543208 0.84688789486 0.52876711191 0.056446743924 
0.80903565141 0.58551252677 0.05134584451 0.76451926351 0.64281504446 0.047949080723 0.71282786139 0.69969162607 0.048042360855 
0.65416289992 0.75457374709 0.051859045203 0.58905657616 0.80591067807 0.059332361014 0.51892964864 0.85202520918 0.069029433521 
0.44567614329 0.89167206095 0.079332912682 0.37181459414 0.92411476494 0.088123826535 0.30020684059 0.94930436885 0.093258072776 
0.23354367472 0.96786970971 0.093196443218 0.17455608986 0.98086205962 0.086254225949 0.12559060308 0.9895348699 0.071047460736 
0.088716733949 0.99499268629 0.046031460492 0.065773864173 0.99779096023 0.009327297205 0.057775808269 0.99751802945 -0.040245954984 
0.065582339272 0.9923949154 -0.10416951884 0.088114911838 0.97956080377 -0.1808214424 0.12144788834 0.95694697537 -0.26363402048 
0.15657679401 0.92832034349 -0.3372017904 -0.24660448628 -0.83610830121 0.49000932236 -0.27318734669 -0.8073743975 0.52298686013 
-0.31461178824 -0.76174538142 0.56635977664 -0.35653307555 -0.71995762735 0.59543696632 -0.39876101083 -0.6850023049 0.60972247664 
-0.44181970831 -0.65672994123 0.61114738782 -0.48541419608 -0.63383458195 0.6021850056 -0.52813396249 -0.61484478197 0.58569651847 
-0.56742963387 -0.59937245935 0.56460275025 -0.60105444267 -0.58612798419 0.54331164454 -0.62614454359 -0.57667895664 0.52477079902 
-0.64146569554 -0.57042570331 0.51296810665 -0.64146569554 -0.57042570331 0.51296810665 
FrenetBinormal 3 128 double
0.282314789 -0.33515846466 0.89886993691 0.282314789 -0.33515846466 0.89886993691 0.27948025638 -0.34099875007 0.89755815341 
0.2754887336 -0.34948609413 0.89552522447 0.27106495096 -0.3593349735 0.89297377855 0.26718667634 -0.3685090369 0.89040011776 
0.26517208832 -0.37365672535 0.88885567736 0.26641836642 -0.37014294871 0.88995249961 0.27210526581 -0.35190308388 0.89561316643 
0.28237771915 -0.31263116876 0.90693140647 0.29551775129 -0.24810073325 0.92255909558 0.30779861414 -0.15955902207 0.93797704215 
0.31490925538 -0.055664779211 0.94748804385 0.31431375647 0.050214567889 0.94799016855 0.30631570089 0.14659166207 0.94057513044 
0.29300261462 0.22758632258 0.92863013821 0.27668037362 0.29253237905 0.91535390864 0.25918440638 0.34316242995 0.90280839061 
0.24195604231 0.38159264079 0.89210107616 0.22644110581 0.40932254043 0.88384358542 0.21491878204 0.42634646517 0.87865727605 
0.21153171001 0.43061333011 0.87739756986 0.22466315405 0.41596850012 0.88119048685 0.27211878784 0.36648984683 0.88973960094 
0.39086418186 0.23966820546 0.8886981167 0.61493067485 -0.051069176391 0.78692579342 0.78397782975 -0.43489067477 0.44299984588 