# vtk DataFile Version 4.2
vtk output
ASCII
DATASET POLYDATA
POINTS 128 float
0 0 0 -0.234258 -0.0538074 0.232837 -0.70724 -0.163826 0.679291 
-1.1305 -0.26529 1.02455 -1.50599 -0.357146 1.28056 -1.91013 -0.454742 1.54183 
-2.3385 -0.555975 1.80674 -2.76947 -0.65503 2.05361 -3.20171 -0.750478 2.28663 
-3.63876 -0.842051 2.51603 -4.07924 -0.928898 2.74442 -4.52056 -1.01014 2.97223 
-4.96199 -1.08569 3.20075 -5.40341 -1.15578 3.4313 -5.84479 -1.2208 3.66366 
-6.28627 -1.28125 3.89702 -6.72849 -1.33775 4.12987 -7.17234 -1.39102 4.36041 
-7.61867 -1.44223 4.58659 -8.0683 -1.49285 4.8063 -8.52169 -1.54526 5.0177 
-8.97906 -1.60237 5.21917 -9.44002 -1.66812 5.4095 -9.90382 -1.74702 5.58776 
-10.3689 -1.84446 5.75314 -10.833 -1.96628 5.90481 -11.2929 -2.11866 6.04112 
-11.7443 -2.3079 6.1597 -12.1809 -2.53978 6.25568 -12.5959 -2.81875 6.32173 
-12.9841 -3.13984 6.34018 -13.3424 -3.49189 6.2894 -13.673 -3.85031 6.15803 
-13.981 -4.18521 5.94211 -14.2737 -4.48149 5.65667 -14.559 -4.73316 5.32608 
-14.8407 -4.94491 4.96666 -15.1197 -5.12719 4.58962 -15.3943 -5.2884 4.20013 
-15.6608 -5.43568 3.79965 -15.9131 -5.5754 3.38751 -16.1433 -5.71352 2.96167 
-16.3373 -5.8559 2.51954 -16.477 -6.00811 2.05892 -16.5447 -6.17257 1.58672 
-16.524 -6.34949 1.11581 -16.4182 -6.53717 0.658909 -16.2439 -6.73285 0.227892 
-16.0184 -6.93651 -0.173708 -15.7589 -7.15024 -0.548288 -15.4772 -7.37718 -0.898098 
-15.1816 -7.62127 -1.22498 -14.8795 -7.88677 -1.52769 -14.5778 -8.17838 -1.80248 
-14.282 -8.50538 -2.04435 -13.9974 -8.88026 -2.24543 -13.7509 -9.30737 -2.3649 
-13.5858 -9.78178 -2.33717 -13.5226 -10.2565 -2.14946 -13.5593 -10.6514 -1.83624 
-13.6706 -10.9486 -1.44114 -13.8126 -11.1826 -1.01286 -13.9618 -11.3776 -0.574593 
-14.1127 -11.5468 -0.126897 -14.2596 -11.7018 0.328752 -14.3954 -11.853 0.789364 
-14.5139 -12.0098 1.25239 -14.6102 -12.1807 1.7157 -14.6809 -12.3727 2.17561 
-14.7246 -12.5911 2.62687 -14.7435 -12.8383 3.06497 -14.7436 -13.1137 3.48623 
-14.7319 -13.415 3.88907 -14.7161 -13.7387 4.2741 -14.703 -14.081 4.64249 
-14.6972 -14.439 4.9959 -14.7018 -14.8099 5.33577 -14.7173 -15.1915 5.66324 
-14.7428 -15.582 5.97931 -14.7753 -15.9803 6.28482 -14.8113 -16.3856 6.5805 
-14.8462 -16.7976 6.86697 -14.8753 -17.216 7.1448 -14.8936 -17.6402 7.41448 
-14.8959 -18.0696 7.67653 -14.8776 -18.503 7.93145 -14.8339 -18.9384 8.1799 
-14.7606 -19.373 8.4228 -14.6538 -19.8034 8.66086 -14.5094 -20.2253 8.89449 
-14.3242 -20.6336 9.12358 -14.0955 -21.0225 9.34716 -13.8226 -21.3863 9.56379 
-13.5078 -21.7201 9.77131 -13.1547 -22.0206 9.96792 -12.7696 -22.2874 10.1526 
-12.3585 -22.5213 10.3248 -11.9268 -22.7246 10.485 -11.4791 -22.8994 10.6341 
-11.019 -23.0476 10.7739 -10.5495 -23.171 10.9062 -10.0729 -23.2703 11.0334 
-9.59148 -23.3462 11.1581 -9.10713 -23.399 11.2835 -8.62195 -23.4295 11.4131 
-8.1381 -23.4389 11.5506 -7.65779 -23.4289 11.7 -7.1833 -23.4028 11.8653 
-6.71674 -23.3645 12.0496 -6.25983 -23.3196 12.2554 -5.81387 -23.2738 12.4838 
-5.3792 -23.2334 12.7339 -4.95573 -23.2044 13.0041 -4.54275 -23.1922 13.2913 
-4.13934 -23.2014 13.5918 -3.74415 -23.2351 13.9015 -3.35618 -23.2959 14.2161 
-2.97548 -23.385 14.5328 -2.60192 -23.503 14.8486 -2.23396 -23.649 15.1592 
-1.87329 -23.8226 15.4639 -1.53307 -24.0262 15.7745 -1.22035 -24.2599 16.0954 
-0.912883 -24.5133 16.3986 -0.616212 -24.7829 16.6842 -0.461274 -25.101 17.0842 
-0.525458 -25.4509 17.6324 -0.605344 -25.6232 17.9255 
LINES 1 129
128 0 1 2 3 4 5 6 7 8 9 10 11 12 13 14 15 16 17 18 19 20 21 22 23 24 25 26 27 28 29 30 31 32 33 34 35 36 37 38 39 40 41 42 43 44 45 46 47 48 49 50 51 52 53 54 55 56 57 58 59 60 61 62 63 64 65 66 67 68 69 70 71 72 73 74 75 76 77 78 79 80 81 82 83 84 85 86 87 88 89 90 91 92 93 94 95 96 97 98 99 100 101 102 103 104 105 106 107 108 109 110 111 112 113 114 115 116 117 118 119 120 121 122 123 124 125 126 127 

CELL_DATA 1
FIELD FieldData 2
Length 1 1 double
59.55835902 
Tortuosity 1 1 double
0.90423426608 
POINT_DATA 128
SCALARS MaximumInscribedSphereRadius float
LOOKUP_TABLE default
1.24 1.15134 1.06268 1.03574 1.01452 1.09643 1.18056 1.14617 1.10532 
1.05754 1.00925 1.06849 1.13779 1.14347 1.14184 1.08043 1.01085 1.04378 
1.09302 1.11716 1.13671 0.992121 0.813517 0.919251 1.09113 1.41505 1.77833 
1.8381 1.81118 1.61027 1.35507 1.2729 1.24911 1.39246 1.59594 1.72303 
1.82065 1.94112 2.07114 2.03485 1.92328 1.71538 1.46033 1.33222 1.27097 
1.25154 1.25548 1.26239 1.27106 1.27526 1.27664 1.32402 1.40255 1.54149 
1.72427 1.89468 2.05557 1.96569 1.67295 1.40112 1.14548 1.09088 1.20204 
1.35121 1.53375 1.66167 1.73825 1.72779 1.62975 1.57205 1.55768 1.55 
1.55 1.56012 1.58265 1.63458 1.72512 1.75313 1.69306 1.58808 1.41517 
1.29533 1.26171 1.2529 1.28748 1.34388 1.44137 1.5395 1.63893 1.71477 
1.73902 1.6989 1.50703 1.39466 1.48454 1.59538 1.76394 1.89625 1.91985 
1.9251 1.87002 1.80366 1.69648 1.60625 1.58396 1.57123 1.60127 1.63965 
1.71996 1.80206 1.89442 1.98612 2.07346 2.15515 2.19348 2.23725 2.33081 
2.43024 2.59569 2.73598 2.51556 2.29708 2.11674 1.94244 1.9768 1.99737 
1.77368 1.55 
TEXTURE_COORDINATES TCoords 2 float
0 0 0.00787402 0 0.015748 0 0.023622 0 0.0314961 
0 0.0393701 0 0.0472441 0 0.0551181 0 0.0629921 0 
0.0708661 0 0.0787402 0 0.0866142 0 0.0944882 0 0.102362 
0 0.110236 0 0.11811 0 0.125984 0 0.133858 0 
0.141732 0 0.149606 0 0.15748 0 0.165354 0 0.173228 
0 0.181102 0 0.188976 0 0.19685 0 0.204724 0 
0.212598 0 0.220472 0 0.228346 0 0.23622 0 0.244094 
0 0.251969 0 0.259843 0 0.267717 0 0.275591 0 
0.283465 0 0.291339 0 0.299213 0 0.307087 0 0.314961 
0 0.322835 0 0.330709 0 0.338583 0 0.346457 0 
0.354331 0 0.362205 0 0.370079 0 0.377953 0 0.385827 
0 0.393701 0 0.401575 0 0.409449 0 0.417323 0 
0.425197 0 0.433071 0 0.440945 0 0.448819 0 0.456693 
0 0.464567 0 0.472441 0 0.480315 0 0.488189 0 
0.496063 0 0.503937 0 0.511811 0 0.519685 0 0.527559 
0 0.535433 0 0.543307 0 0.551181 0 0.559055 0 
0.566929 0 0.574803 0 0.582677 0 0.590551 0 0.598425 
0 0.606299 0 0.614173 0 0.622047 0 0.629921 0 
0.637795 0 0.645669 0 0.653543 0 0.661417 0 0.669291 
0 0.677165 0 0.685039 0 0.692913 0 0.700787 0 
0.708661 0 0.716535 0 0.724409 0 0.732283 0 0.740157 
0 0.748031 0 0.755906 0 0.76378 0 0.771654 0 
0.779528 0 0.787402 0 0.795276 0 0.80315 0 0.811024 
0 0.818898 0 0.826772 0 0.834646 0 0.84252 0 
0.850394 0 0.858268 0 0.866142 0 0.874016 0 0.88189 
0 0.889764 0 0.897638 0 0.905512 0 0.913386 0 
0.92126 0 0.929134 0 0.937008 0 0.944882 0 0.952756 
0 0.96063 0 0.968504 0 0.976378 0 0.984252 0 
0.992126 0 1 0 
FIELD FieldData 7
Curvature 1 128 double
0 0.011102340189 0.019948433247 0.02693780963 0.031651557632 0.034013949737 0.03427180793 0.032905601922 0.030521040715 
0.027711779243 0.024938868876 0.02245607013 0.020338315192 0.018648394772 0.017697237591 0.01821742245 0.021086444223 0.026689903666 
0.034886867251 0.045395821708 0.057987942638 0.072489819769 0.088703348956 0.106375144 0.12516747705 0.144591347 0.16401294703 
0.18257264146 0.19919268059 0.21265253715 0.22173985069 0.22556294369 0.22382753683 0.21704399717 0.2064557908 0.19390726943 
0.18146813908 0.17133659647 0.16548132022 0.16531600618 0.17103793203 0.18140124936 0.19387539179 0.20531927954 0.21291478311 
0.21512702716 0.21232205922 0.20694114907 0.20297880598 0.20522603995 0.21844304509 0.24662243257 0.29279880898 0.35855058016 
0.44144919305 0.52951555694 0.5967299776 0.61170587391 0.56233825238 0.46800825414 0.36096767712 0.26354666547 0.18357934926 
0.12060037054 0.071744623662 0.035642089012 0.021575345972 0.035783649942 0.052810842117 0.066127084884 0.075183833362 0.080305272383 
0.082142671114 0.081439776599 0.078895767436 0.075061767581 0.070418788024 0.065405776725 0.060657233101 0.057086954594 0.055865642718 
0.058088932518 0.064140679261 0.073577544788 0.085552619631 0.099154837048 0.11353648389 0.12790182032 0.14145425872 0.15338934387 
0.16290031912 0.1693743594 0.1723332048 0.17170466158 0.16767708364 0.16077637584 0.1517046365 0.14117586318 0.1298167465 
0.11826437677 0.10693850177 0.09618925004 0.086380182885 0.077680247069 0.070360841149 0.064643102861 0.060733961216 0.058813468256 
0.058931854012 0.061096036317 0.065133947079 0.07077975548 0.077705241852 0.085548983813 0.093917170486 0.10253082354 0.11119717634 
0.11971666568 0.12788666032 0.13512409326 0.14023704577 0.14129833854 0.1360745808 0.12264666468 0.10036939866 0.070115132936 
0.034229534103 0 
Torsion 1 128 double
0 0 -0.032611163839 -0.047045208581 -0.064314571815 -0.084826047455 -0.10847082272 -0.13360541739 -0.15540852684 
-0.16395155083 -0.14424584799 -0.080317282305 0.039404306302 0.21700995816 0.42587342925 0.56956841564 0.54746331233 0.41826025018 
0.28838139879 0.19097591843 0.11977571771 0.064319670458 0.018084811584 -0.023119625662 -0.060866380127 -0.095134786666 -0.12560076495 
-0.15082145775 -0.16927714034 -0.17932413401 -0.17948444675 -0.16865569647 -0.1455823406 -0.10922044346 -0.058421704255 0.0070136398249 
0.084530955885 0.1660291101 0.23592694599 0.27685046941 0.28252332089 0.26373653947 0.23838796909 0.22039895633 0.21707589281 
0.23153322442 0.26464371134 0.31356519612 0.36767845382 0.40538741296 0.40328459172 0.35630463077 0.28228783069 0.20368517249 
0.13412283983 0.078416552775 0.035931546035 0.003592492613 -0.022991240922 -0.047856440829 -0.073970782445 -0.105814437 -0.15328562068 
-0.24253670674 -0.47055396931 -1.3572910233 -2.8274141694 -0.87160010905 -0.37913867316 -0.24724210401 -0.19942676398 -0.17631599963 
-0.1582695678 -0.13576143147 -0.10210238763 -0.053342805809 0.0143434612 0.10359282421 0.21258090337 0.32844611676 0.41662119738 
0.43741665108 0.39054795019 0.31456881205 0.24233808841 0.18567305613 0.14380104901 0.11335174057 0.091305346233 0.075270647824 
0.063829903834 0.056279885515 0.052478012124 0.052413885673 0.056304483568 0.064694182799 0.07827690521 0.097349722765 0.12242743704 
0.1541794092 0.19266241663 0.23828115225 0.29024340396 0.34720250616 0.40660625183 0.46254460888 0.50683492313 0.5306024694 
0.52650808235 0.49496229144 0.44197876014 0.37495386304 0.30214872204 0.22736016515 0.15427380097 0.085014574995 0.021639552894 
-0.032249419072 -0.072941421387 -0.097786753051 -0.10702026057 -0.10353622378 -0.091015134913 -0.074167759968 -0.056337112913 -0.038848659671 
0 0 
Abscissas 1 128 double
0 0.50297289714 1.0059457943 1.5089175154 2.0118891277 2.5148625826 3.0178360771 3.5208076968 4.0237792144 
4.5267543992 5.0297298548 5.5327043356 6.0356787252 6.5386487484 7.0416182711 7.5445933418 8.0475691697 8.5505403454 
9.053510781 9.556483168 10.059455912 10.562428742 11.06540159 11.568362664 12.071320998 12.574292035 13.07726636 
13.580255511 14.083248897 14.58621948 15.089182949 15.592154508 16.095128798 16.598098252 17.101065965 17.604036071 
18.107007099 18.60999223 19.112983256 19.615950013 20.118905783 20.621881037 21.12486583 21.627837116 22.130801289 
22.633772302 23.136747133 23.639719536 24.142690506 24.645652898 25.14860987 25.651589992 26.154585795 26.65755387 
27.160501824 27.663465523 28.166441328 28.669410289 29.172373713 29.675343704 30.178318776 30.681293094 31.184266792 
31.687241323 32.190216584 32.693194426 33.196174691 33.699150163 34.202120813 34.705094307 35.208070857 35.711042009 
36.214006971 36.716973243 37.219941122 37.722915979 38.225900004 38.728865381 39.231804497 39.734765672 40.237760207 
40.740739304 41.24369332 41.746664647 42.249666245 42.752646693 43.25558733 43.758545315 44.26153851 44.764534261 
45.267535604 45.770522177 46.27347393 46.77643568 47.279422862 47.782401326 48.285355785 48.788313724 49.291282098 
49.794248998 50.297211058 50.800178645 51.303166232 51.806151578 52.309127933 52.812105245 53.31508683 53.818066042 
54.321033313 54.823999916 55.326962704 55.829927402 56.332904649 56.835880485 57.338845486 57.841813436 58.344808395 
58.847802096 59.350781675 59.853760061 60.356721324 60.859683427 61.362662055 61.865639867 62.368589476 62.871542297 
63.374552027 63.877561756 
ParallelTransportNormals 3 128 double
0.69125888561 0 0.7226071914 0.64770377295 -0.010339137877 0.75942645657 0.60414866029 -0.020678275754 0.79624572175 
0.57159366581 -0.028494983482 0.81917516332 0.54005745757 -0.03607807398 0.84081818588 0.51661998368 -0.041511662324 0.85475041579 
0.49335605948 -0.04689918848 0.86851740929 0.48165417879 -0.049418988348 0.87487212919 0.47058297601 -0.051782361572 0.8808225298 
0.4680599103 -0.052278466596 0.88214633732 0.46616829503 -0.052636636612 0.88312837863 0.4679300033 -0.052351647721 0.88221030529 
0.47003366202 -0.052006459266 0.88111438155 0.47061627685 -0.051919142771 0.88080900621 0.47102450059 -0.051861391876 0.88059426903 
0.46598690352 -0.052484576323 0.88320926645 0.46020620843 -0.053200676369 0.88621038935 0.44798553784 -0.054620632745 0.89224779252 
0.43474023976 -0.056152575657 0.89876828079 0.41685735025 -0.058385088614 0.90686188995 0.39812720613 -0.060745590682 0.91524289698 
0.37785544925 -0.064011191457 0.92338190603 0.35726426909 -0.067464329339 0.93147077292 0.33721602887 -0.072232553169 0.93840870662 
0.31729410102 -0.077306725422 0.94507888124 0.29607151161 -0.085271742138 0.95105876759 0.27451210634 -0.093985364286 0.9568598987 
0.23854637316 -0.11572217098 0.96306538538 0.19846546494 -0.14117905707 0.96938637643 0.12139288208 -0.208634144 0.96330239253 
0.032779862846 -0.28919157273 0.95334838042 -0.068198834323 -0.3914409929 0.90363054179 -0.17335022613 -0.50101019424 0.84049473233 
-0.25067516325 -0.57493609495 0.77067157615 -0.31798929154 -0.63603900859 0.6984425889 -0.36112763034 -0.66995441425 0.64597967989 
-0.39493570614 -0.69337723187 0.60114517569 -0.41923694724 -0.70859220125 0.5663578565 -0.4395651397 -0.72037698788 0.53576940646 
-0.45813720638 -0.73170168641 0.50329397015 -0.47591424793 -0.74281809597 0.46996426612 -0.49226983883 -0.75807631699 0.42437814797 
-0.50792937598 -0.7753626938 0.37279032797 -0.51264464897 -0.79634691018 0.31503484199 -0.51159713277 -0.81927825333 0.25403172251 
-0.50369691146 -0.83690074354 0.21129287283 -0.49197017745 -0.85155879959 0.17875269054 -0.4872898712 -0.85728330848 0.16617147717 
-0.48677260435 -0.85772986517 0.16538205068 -0.4969820204 -0.84910479146 0.1768768767 -0.51396746323 -0.83474918474 0.19613164347 
-0.54408509696 -0.80597119961 0.22527099476 -0.58309848836 -0.76742348265 0.26110617231 -0.64356399096 -0.6900797816 0.30562866394 
-0.71959664398 -0.58458300444 0.35645527753 -0.80492807689 -0.39031596639 0.36895460638 -0.89740857335 -0.12780080937 0.35198725277 
-0.93408692169 0.098869874017 0.26518822866 -0.92562350868 0.2965437763 0.12189810678 -0.90965736216 0.40745664943 0.01910227741 
-0.88788614418 0.45124012586 -0.052362003078 -0.87550221793 0.47408955622 -0.092374455972 -0.87085806228 0.47967898029 -0.10645504933 
-0.87225784664 0.47804277267 -0.10063231725 -0.8789596107 0.47006795937 -0.077349612482 -0.88777162235 0.45583864906 -0.038822848396 
-0.89856719358 0.43573032835 0.014032803065 -0.90707835972 0.41036690595 0.071611044346 -0.91329132751 0.37971665152 0.13394039047 
-0.91671264658 0.34997690428 0.1873922535 -0.9171347386 0.32121536672 0.2313065314 -0.9171208587 0.29922031541 0.2626810188 
-0.91660700825 0.28498503873 0.2796749334 -0.91632404634 0.27715511277 0.28902471268 -0.916324304 0.27718231453 0.28899780832 
-0.9162400414 0.27925291991 0.28721957216 -0.91604473176 0.28400825339 0.28314034679 -0.91596024742 0.28640279637 0.28105043677 
-0.91603182766 0.2854728654 0.28176188803 -0.91647238178 0.27969735755 0.28580303895 -0.91747093406 0.26659389746 0.29487968527 
-0.91842034561 0.24782755823 0.3072487842 -0.91928991563 0.21986044181 0.32496730382 -0.91896506316 0.18677949122 0.3452301041 
-0.91655143308 0.14475558911 0.36994228182 -0.911495661 0.098809496018 0.39646818373 -0.90146633425 0.045480290547 0.42640823081 
-0.88717220058 -0.010762383758 0.45792513598 -0.86422133271 -0.072918837011 0.49264275846 -0.83565518976 -0.13610462821 0.52839934566 
-0.79480571651 -0.20154208076 0.56642865264 -0.74939610783 -0.26443958628 0.60378155045 -0.69323628012 -0.32134933389 0.6395398582 
-0.63628199886 -0.37334144538 0.67299687412 -0.57730666141 -0.41282329886 0.70059950106 -0.52023931656 -0.44807137267 0.72588262824 
-0.46842581598 -0.47166131992 0.74477878591 -0.41914879275 -0.49257040282 0.76208856187 -0.37747963669 -0.50543854653 0.77464017136 
-0.33832842447 -0.51670860814 0.78619687274 -0.30744872196 -0.52272892931 0.79448527559 -0.27937911518 -0.5278191754 0.80200958631 
-0.26148005335 -0.52954321217 0.80676842781 -0.2469820121 -0.53092464683 0.8106285284 -0.24611921304 -0.53093253413 0.81088543121 
-0.24885355256 -0.5311421085 0.80983006687 -0.26767691356 -0.53225377415 0.8029052889 -0.28923098938 -0.53372572401 0.7943621616 
-0.32451910629 -0.53700971148 0.77767959926 -0.36087675912 -0.54029222202 0.75971685239 -0.40334502654 -0.54356629429 0.7344399854 
-0.44560804666 -0.54643278531 0.70867409732 -0.48652214611 -0.54662058203 0.67969427824 -0.5266973009 -0.5463246695 0.6509166228 
-0.56119978552 -0.54231545728 0.62369092066 -0.59509031125 -0.53795567433 0.59682891723 -0.62337619024 -0.53038517727 0.57329786101 
-0.65162305887 -0.52243657684 0.54973738132 -0.67943196166 -0.51024304388 0.52584656689 -0.7079562623 -0.49720365557 0.50114538696 
-0.7467422259 -0.47203132257 0.46482032839 -0.78608991067 -0.44567448848 0.42733024203 -0.83647844372 -0.39603582455 0.36694108095 
-0.88688972789 -0.34288919671 0.30153462233 -0.93808755573 -0.16846654644 0.062672019964 -0.98654966895 -0.003364029739 -0.16342715197 
-0.98654966895 -0.003364029739 -0.16342715197 -0.98654966895 -0.003364029739 -0.16342715197 
FrenetTangent 3 128 double
-0.79015228904 -0.18258774588 0.58508210977 -0.79015228904 -0.18258774588 0.58508210977 -0.79475910951 -0.18248837619 0.57884017691 
-0.80164975552 -0.18214141948 0.56936997882 -0.81014962353 -0.18133782822 0.55747123652 -0.81952958163 -0.17986902088 0.54407573017 
-0.82911620284 -0.17757187534 0.53012691997 -0.83836902834 -0.17436270885 0.51646395623 -0.84691785902 -0.17025701768 0.50372878417 
-0.85456546256 -0.16537548006 0.49230967977 -0.86126626777 -0.1599413993 0.48232682362 -0.86709346445 -0.15427321668 0.47365461945 
-0.87220224588 -0.14877547224 0.46597113768 -0.87679408434 -0.14393174854 0.45881999241 -0.88108349686 -0.14029746263 0.45167299404 
-0.88526730093 -0.13849199966 0.44398397711 -0.88949747078 -0.1391896675 0.43522463847 -0.89385829971 -0.14310198673 0.42489900144 
-0.89834974571 -0.15095026771 0.41253090922 -0.90287486355 -0.16342466175 0.39762967786 -0.90722876081 -0.18112601342 0.37964370509 
-0.9110935972 -0.20448864158 0.35790061832 -0.91403589355 -0.2336824946 0.33155825585 -0.9155041504 -0.26850574065 0.29959442225 
-0.91484121595 -0.30826872276 0.2608370069 -0.91131028763 -0.35169041838 0.21407337358 -0.90413808179 -0.39685214932 0.15824885668 
-0.89259109658 -0.44122858574 0.092727932333 -0.87607262044 -0.48185775398 0.017603086255 -0.85423365292 -0.51567636073 -0.066051171144 
-0.82706865551 -0.53999654107 -0.15608066729 -0.79495149361 -0.55303441636 -0.24940941669 -0.75857506946 -0.55431980892 -0.34248125996 
-0.71877348341 -0.54484239362 -0.43186970912 -0.6762771862 -0.52684783381 -0.51485971627 -0.63146481969 -0.50337408927 -0.58980226157 
-0.5842055867 -0.47768828627 -0.65613850186 -0.53382920518 -0.45280223361 -0.71414040422 -0.47921996125 -0.43116059062 -0.7644924943 
-0.41902572208 -0.41450545763 -0.8078382696 -0.35195990769 -0.40387596353 -0.84439826472 -0.27718709715 -0.39968164301 -0.87374017729 
-0.19473547749 -0.40182298977 -0.89477169082 -0.10585739478 -0.40984710198 -0.90599092985 -0.01314979728 -0.42314979804 -0.90596431014 
0.079722204732 -0.44121020948 -0.89385564893 0.16866967294 -0.46380244194 -0.86973434811 0.24995778557 -0.4911184988 -0.83446014019 
0.32077180201 -0.52375108187 -0.78917061227 0.37934383231 -0.56254816393 -0.73460044933 0.4246787899 -0.60836898488 -0.67047379042 
0.45602312838 -0.66172949922 -0.59511089407 0.47226232575 -0.72224798099 -0.50529807998 0.47139526242 -0.78773373687 -0.39656281516 
0.45036327394 -0.85282495812 -0.26431517606 0.4058519104 -0.90770397346 -0.10657262028 0.33678929594 -0.93884356312 0.071733772533 
0.2479300366 -0.93436821539 0.25590376123 0.15082570218 -0.89228565856 0.42553250297 0.059253218986 -0.82311535941 0.56477443386 
-0.017034752057 -0.7431677735 0.66888824003 -0.07444594438 -0.66624225193 0.74201015027 -0.11369898711 -0.60049591849 0.79150312204 
-0.13733755045 -0.54942126075 0.82418121519 -0.14826269093 -0.51374448881 0.8450353689 -0.14917027467 -0.49278616321 0.85726893476 
-0.14247102262 -0.4851649887 0.86273804915 -0.13036295964 -0.48911851074 0.86242018831 -0.11488810292 -0.50263912512 0.85682824049 
-0.097937134335 -0.5235688483 0.8463356183 -0.08117721544 -0.54973320985 0.83138658738 -0.065946223639 -0.57907835845 0.81260036325 
-0.053141021503 -0.60979620894 0.79077469319 -0.043149597906 -0.64041928729 0.7668123947 -0.035849451399 -0.66985930285 0.74162209461 
-0.03065360544 -0.69738908743 0.71603688258 -0.02661760485 -0.72259603742 0.69075789523 -0.022551705054 -0.74530949627 0.66633713341 
-0.017142434386 -0.76552008075 0.64318359969 -0.0090724610109 -0.78330321318 0.62157362128 0.0028919789199 -0.79873804224 0.601671984 
0.019833820899 -0.8118425785 0.58353941365 0.042640960388 -0.82251596758 0.56714128009 0.071965655566 -0.83049564239 0.55235670756 
0.10820072085 -0.83534435311 0.53897348333 0.15145369671 -0.83645812732 0.52668736362 0.20150963924 -0.83309712048 0.51511460194 
0.25779170784 -0.82445564424 0.50380187182 0.3193354792 -0.8097578362 0.49225714665 0.38478800776 -0.78837334219 0.4800058983 
0.45244845724 -0.7599500238 0.46665442766 0.52038395784 -0.72452383177 0.45195769007 0.58659412855 -0.68257981357 0.4358808627 
0.64920968712 -0.63503591512 0.41863608141 0.70668305008 -0.58314625977 0.40067381553 0.75791223366 -0.52835348554 0.38263774041 
0.80229050992 -0.47211041598 0.36529671886 0.83965659616 -0.4157447491 0.34947546999 0.87018897392 -0.36039860779 0.33598213221 
0.89429918659 -0.30699548122 0.32554990306 0.91251957457 -0.25626444036 0.31880489745 0.92541560155 -0.2088150794 0.31623128724 
0.93353880599 -0.16517534188 0.31815468588 0.93739957461 -0.12585980791 0.32471733288 0.93746600843 -0.091411747958 0.33585916003 
0.93417436175 -0.062389141635 0.35132016289 0.92794468956 -0.039355313403 0.3706343379 0.91918918836 -0.022835715583 0.39315361641 
0.90831178901 -0.013283836973 0.41808280714 0.89569269336 -0.01101175237 0.44453722046 0.88165699887 -0.016163819585 0.4716138964 
0.86643350058 -0.02868883796 0.49846759138 0.8501049761 -0.048306744653 0.524392971 0.83255922 -0.074531778708 0.54889904277 
0.8134551823 -0.10666667131 0.57176296454 0.79221655402 -0.14383668148 0.59304632248 0.76805757214 -0.18502730495 0.61306807314 
0.74006856719 -0.22908145342 0.63231337449 0.70736634837 -0.27470844236 0.65128190586 0.66932020499 -0.32048176223 0.67029986071 
0.62586945134 -0.36483070884 0.68933735121 0.57788349204 -0.4060785126 0.70792013055 0.52744489245 -0.44258781479 0.72520197989 
0.47789212256 -0.47300844265 0.74019060543 0.43344710037 -0.49649766286 0.75207292329 0.39848884922 -0.51279365695 0.76042705268 
0.37670202676 -0.52207697799 0.76520011245 0.37670202676 -0.52207697799 0.76520011245 
FrenetNormal 3 128 double
-0.59577881036 0.004688952968 -0.80313487214 -0.59577881036 0.004688952968 -0.80313487214 -0.59127769304 0.017638953839 -0.80627511249 
-0.58445831743 0.038748009735 -0.81049803635 -0.57592837851 0.068770807133 -0.81460240542 -0.56627336406 0.10875788832 -0.81701052556 
-0.55583866342 0.15991617139 -0.81576356769 -0.54448809744 0.22287419933 -0.80861597994 -0.53153218519 0.29651090875 -0.7934449049 
-0.51611461799 0.37597286675 -0.7695908683 -0.49841441239 0.4508321586 -0.74049540059 -0.48122155927 0.5051496432 -0.71641443932 
-0.46994577225 0.51914808189 -0.71388811463 -0.46877396295 0.46847027348 -0.74885684514 -0.47190815612 0.32445804973 -0.81977415558 
-0.45681322439 0.079708237517 -0.88598435364 -0.40497431264 -0.20101157596 -0.89195860466 -0.3315686785 -0.42692840008 -0.84130514835 
-0.26004833003 -0.57412339861 -0.77637438728 -0.19829024417 -0.66235533421 -0.72247241491 -0.14499082543 -0.71257667227 -0.6864489396 
-0.097288388972 -0.73706074951 -0.66878727627 -0.052704678648 -0.7420370054 -0.66828384648 -0.0093761353104 -0.73024564875 -0.68312032657 
0.033778465621 -0.70208896846 -0.71128763213 0.077510279905 -0.65720017827 -0.74972000253 0.12211345912 -0.59498542642 -0.7944058443 
0.16735644036 -0.51520878786 -0.84056631314 0.21279449387 -0.41912903999 -0.88263772365 0.25761147367 -0.30949862605 -0.91533978888 
0.30113540716 -0.19119846456 -0.93421657751 0.34296399464 -0.070554664393 -0.9366951146 0.38353479381 0.045053360349 -0.92242682998 
0.4245266846 0.14797889003 -0.89324092057 0.46894613997 0.23110520504 -0.85245521994 0.52107444383 0.2878135423 -0.80352024794 
0.58489382181 0.31268593519 -0.74841614302 0.66193095713 0.30176616512 -0.68613744219 0.74778574603 0.25546444822 -0.6128249291 
0.83180061918 0.181475227 -0.52457075016 0.90190896926 0.094970688332 -0.42135588227 0.95156020319 0.011726015531 -0.30723880006 
0.98060645125 -0.059188144721 -0.18683616162 0.9911575267 -0.11679525808 -0.0629732083 0.98418607078 -0.16554263341 0.063035026811 
0.95854881654 -0.21214454684 0.1902074067 0.91095019284 -0.26365583571 0.31726226763 0.83599094485 -0.32534231309 0.4418953716 
0.72738706181 -0.39743268673 0.55942409836 0.58280181629 -0.47137373101 0.66192812952 0.41131353472 -0.5300821454 0.74150798734 
0.23320697438 -0.55647154913 0.79746719187 0.067879060646 -0.5417512479 0.83779354171 -0.076753361809 -0.48459521559 0.87136467594 
-0.20174778099 -0.38558320102 0.90034628225 -0.3097243496 -0.24630858834 0.91836970038 -0.39934973004 -0.073433523637 0.9138530028 
-0.4649505262 0.11697687607 0.87757473679 -0.50146190573 0.3019059411 0.81079514048 -0.50879593968 0.46186048329 0.72650642512 
-0.49165901305 0.5887433545 0.64160165011 -0.45493280517 0.68482582377 0.56925366391 -0.39889317995 0.75722934326 0.51719237494 
-0.31398030787 0.81330394853 0.48985003172 -0.16384498356 0.85543078713 0.49131760582 0.20469838579 0.83279896431 0.51433885319 
0.96237284679 0.13586410613 0.23532838425 0.82659801082 -0.5339436436 -0.17787611971 0.64909645469 -0.69092123889 -0.31827917646 
0.53413357954 -0.74521135435 -0.39920089749 0.44266677322 -0.76724195052 -0.46409688348 0.36031698299 -0.77324393076 -0.52179066235 
0.28350558687 -0.76852177585 -0.5735842242 0.21360222809 -0.7556934993 -0.61911341713 0.15562626419 -0.73678770998 -0.65796985973 
0.11725449281 -0.71393621374 -0.69032345073 0.10705011027 -0.68908957975 -0.71672576692 0.13591461418 -0.6626042823 -0.73653430519 
0.21326164364 -0.63127461854 -0.7456620061 0.343416359 -0.5862330417 -0.73375474457 0.51280621065 -0.5153548717 -0.68661426328 
0.68435962822 -0.41447071812 -0.59988825883 0.81892569029 -0.29639932586 -0.4914347906 0.90398665304 -0.17969856531 -0.38796463338 
0.94942601656 -0.073918921515 -0.30516590917 0.96907406193 0.020627504483 -0.24590642236 0.97242951299 0.10714250386 -0.20712635305 
0.96448837177 0.18855516211 -0.18495710737 0.94758125934 0.26698577052 -0.17552309049 0.9226300983 0.34334876394 -0.17568530961 
0.89002545486 0.41770305986 -0.18269877799 0.85012208714 0.48949541108 -0.1941305733 0.80348946816 0.5579719125 -0.20753799514 
0.75100477414 0.62237506188 -0.22054730007 0.69379156774 0.68219425632 -0.23079050494 0.63307371072 0.73725588236 -0.23594796187 
0.56990734641 0.78784834873 -0.23345362689 0.50499645549 0.83444422181 -0.22063866529 0.43857318614 0.87732571835 -0.19481566755 
0.37020502441 0.91627829064 -0.15291283141 0.29876275867 0.9499233742 -0.091577274389 0.22271415047 0.97485071262 -0.008030895951 
0.14004429903 0.98503420267 0.1004749416 0.04952067331 0.97110874414 0.23344273379 -0.048873398089 0.92077224293 0.38702695978 
-0.15206390072 0.82109810742 0.5501585845 -0.25297466309 0.66377980924 0.70384670538 -0.34121642181 0.45226784252 0.82402982477 
-0.4067768648 0.20487226732 0.89025835371 -0.44453494623 -0.047135355926 0.89452050832 -0.45721280191 -0.27658598069 0.84525537505 
-0.45325982438 -0.46389580107 0.76115452922 -0.44290516117 -0.60427066403 0.66233826917 -0.43523743998 -0.70097658426 0.56497805193 
-0.43695359869 -0.76088703448 0.47971082263 -0.45181768969 -0.79148835075 0.41159077482 -0.48131029564 -0.79827888353 0.36206521986 
-0.52454249886 -0.78502839611 0.32952326806 -0.57838560212 -0.75460627087 0.30990235756 -0.6381755103 -0.70996410342 0.29779689374 
-0.69866442136 -0.65508275186 0.28763625388 -0.75533778313 -0.59460789749 0.27551094646 -0.80484095227 -0.5336682832 0.25967134046 
-0.84513659598 -0.47733510121 0.24061449517 -0.87561318688 -0.42940186675 0.22116867723 -0.89635048328 -0.39340275536 0.20442622926 
-0.90790995426 -0.37201737691 0.19313877454 -0.90790995426 -0.37201737691 0.19313877454 
FrenetBinormal 3 128 double
0.14389916345 -0.98317838095 -0.11248689695 0.14389916345 -0.98317838095 -0.11248689695 0.13692570088 -0.98304977487 -0.12192002533 
0.12556330934 -0.98250857251 -0.13751640009 0.10938048417 -0.98101333739 -0.16015224488 0.087782355781 -0.97765988823 -0.19098534226 
0.060080799159 -0.9710278303 -0.23129040264 0.025885981957 -0.95912707033 -0.28178924554 -0.01427151635 -0.9397307215 -0.34161746866 
-0.05782362234 -0.91175399866 -0.4066461295 -0.099012572498 -0.87816235035 -0.46800362917 -0.12874290199 -0.8491310927 -0.51225155207 
-0.13569898096 -0.84163598303 -0.52271852717 -0.1071592522 -0.87167611796 -0.47822342064 -0.031536704809 -0.93543764942 -0.35208214994 
0.0873125645 -0.98715072958 -0.1338280732 0.21163661209 -0.9696497217 0.12243104849 0.30179388906 -0.89289078985 0.33416535717 
0.35403756924 -0.80473370741 0.47650924411 0.3814419482 -0.73114826894 0.56561846591 0.39485900787 -0.67781107501 0.62020844117 
0.40055389962 -0.64414737987 0.65163695912 0.40219473163 -0.62831009409 0.6659322965 0.40219925247 -0.62820853203 0.66602537609 