# vtk DataFile Version 4.2
vtk output
ASCII
DATASET POLYDATA
POINTS 128 float
0 0 0 -0.299156 0.129887 -0.0757826 -0.899648 0.367446 -0.200365 
-1.42828 0.522879 -0.248134 -1.88651 0.605182 -0.241407 -2.37296 0.672349 -0.237525 
-2.88279 0.716312 -0.238444 -3.38808 0.713744 -0.23448 -3.8853 0.654338 -0.232444 
-4.37415 0.529993 -0.242317 -4.83291 0.323616 -0.264595 -5.23496 0.0209003 -0.294757 
-5.5644 -0.361699 -0.317567 -5.81487 -0.797244 -0.314883 -6.01317 -1.25821 -0.27257 
-6.19637 -1.71809 -0.179849 -6.39338 -2.1576 -0.0376597 -6.62712 -2.56194 0.147064 
-6.90163 -2.92784 0.3569 -7.21346 -3.2577 0.571058 -7.5585 -3.56164 0.77381 
-7.93047 -3.85507 0.948251 -8.30895 -4.16842 1.05377 -8.66388 -4.53331 1.04465 
-8.9387 -4.94019 0.916057 -9.07436 -5.36173 0.685483 -9.08701 -5.78102 0.396496 
-9.02529 -6.18727 0.100134 -8.91725 -6.58043 -0.190426 -8.78004 -6.96501 -0.480807 
-8.62455 -7.33934 -0.777624 -8.45815 -7.69837 -1.08786 -8.28565 -8.03516 -1.41778 
-8.11012 -8.34212 -1.77291 -7.93139 -8.61498 -2.15518 -7.74774 -8.85179 -2.56329 
-7.56091 -9.05495 -2.98315 -7.37317 -9.23062 -3.39599 -7.1679 -9.39845 -3.82023 
-6.92014 -9.58844 -4.28443 -6.65477 -9.85104 -4.63638 -6.43151 -10.239 -4.61862 
-6.31396 -10.6324 -4.2615 -6.35079 -10.8226 -3.79148 -6.49159 -10.8413 -3.29781 
-6.65973 -10.7929 -2.81644 -6.84029 -10.6865 -2.36414 -7.04188 -10.4959 -1.94896 
-7.25415 -10.2305 -1.57427 -7.45956 -9.91458 -1.23981 -7.65038 -9.56586 -0.933633 
-7.82362 -9.19872 -0.638449 -7.97709 -8.82666 -0.33828 -8.109 -8.46264 -0.0183277 
-8.21735 -8.11876 0.331569 -8.29958 -7.80805 0.7192 -8.34879 -7.55694 1.15292 
-8.35697 -7.39967 1.63789 -8.329 -7.3746 2.14357 -8.27806 -7.51669 2.62055 
-8.2247 -7.80013 3.04064 -8.19227 -8.16469 3.39088 -8.18703 -8.57195 3.68432 
-8.20452 -8.99819 3.94894 -8.23912 -9.43083 4.20122 -8.28447 -9.86459 4.44985 
-8.3332 -10.2963 4.70113 -8.37734 -10.7244 4.9596 -8.40942 -11.1481 5.22678 
-8.4225 -11.5679 5.5019 -8.41199 -11.9839 5.78283 -8.37524 -12.3965 6.06649 
-8.3122 -12.8059 6.35025 -8.22486 -13.2122 6.63204 -8.1154 -13.6149 6.91119 
-7.98609 -14.013 7.18833 -7.83835 -14.4053 7.46457 -7.67278 -14.79 7.74138 
-7.48954 -15.1655 8.0197 -7.28838 -15.5302 8.29991 -7.0691 -15.883 8.58187 
-6.83159 -16.2229 8.86497 -6.57588 -16.5488 9.1486 -6.30212 -16.8598 9.43217 
-6.01059 -17.1543 9.71563 -5.70166 -17.4302 9.99953 -5.37569 -17.6842 10.2848 
-5.03303 -17.912 10.5727 -4.6744 -18.1086 10.8643 -4.30101 -18.2681 11.1602 
-3.91492 -18.3854 11.4596 -3.51932 -18.457 11.7609 -3.11757 -18.4822 12.0616 
-2.71311 -18.4637 12.359 -2.30852 -18.4063 12.651 -1.90499 -18.3164 12.9361 
-1.50303 -18.2008 13.2138 -1.10222 -18.0657 13.4843 -0.702009 -17.9166 13.748 
-0.301746 -17.7577 14.0059 0.0990143 -17.5924 14.2589 0.500372 -17.4232 14.5083 
0.902208 -17.2521 14.7557 1.30407 -17.0807 15.0028 1.70545 -16.9108 15.2517 
2.10586 -16.7446 15.5046 2.5048 -16.5851 15.7642 2.90173 -16.4357 16.0327 
3.29595 -16.3009 16.3129 3.68634 -16.1863 16.6071 4.07128 -16.0981 16.9175 
4.44796 -16.0445 17.2456 4.81255 -16.0338 17.5916 5.15898 -16.0756 17.9535 
5.4801 -16.1782 18.3275 5.76696 -16.3461 18.7051 6.01106 -16.5805 19.0779 
6.20621 -16.8739 19.4375 6.34885 -17.2166 19.7772 6.44208 -17.5965 20.0933 
6.48693 -18.0014 20.3859 6.47404 -18.4215 20.665 6.40143 -18.846 20.9361 
6.29831 -19.261 21.1846 6.16845 -19.6557 21.4137 5.89928 -20.0334 21.7054 
5.47008 -20.3654 22.0745 5.23262 -20.5119 22.2659 
LINES 1 129
128 0 1 2 3 4 5 6 7 8 9 10 11 12 13 14 15 16 17 18 19 20 21 22 23 24 25 26 27 28 29 30 31 32 33 34 35 36 37 38 39 40 41 42 43 44 45 46 47 48 49 50 51 52 53 54 55 56 57 58 59 60 61 62 63 64 65 66 67 68 69 70 71 72 73 74 75 76 77 78 79 80 81 82 83 84 85 86 87 88 89 90 91 92 93 94 95 96 97 98 99 100 101 102 103 104 105 106 107 108 109 110 111 112 113 114 115 116 117 118 119 120 121 122 123 124 125 126 127 

CELL_DATA 1
FIELD FieldData 2
Length 1 1 double
55.547179198 
Tortuosity 1 1 double
0.80801334045 
POINT_DATA 128
SCALARS MaximumInscribedSphereRadius float
LOOKUP_TABLE default
0.6944 0.769587 0.844775 0.888324 0.928894 0.93 0.93 1.00826 1.09199 
1.17566 1.25933 1.27587 1.28487 1.36515 1.45455 1.44219 1.41413 1.36988 
1.3227 1.38625 1.47293 1.43381 1.36459 1.24522 1.11233 1.1134 1.15068 
1.28889 1.45799 1.51923 1.54381 1.56191 1.57755 1.60266 1.63174 1.62883 
1.61111 1.59538 1.58066 1.59056 1.61421 1.60446 1.5728 1.56091 1.55166 
1.55 1.55 1.55 1.55 1.58448 1.62839 1.7097 1.80257 1.90229 
2.00438 1.96651 1.87484 1.64778 1.36372 1.27362 1.2691 1.33207 1.42631 
1.48776 1.53264 1.54909 1.54975 1.55 1.55 1.57249 1.60996 1.68105 
1.77657 1.83017 1.85056 1.84843 1.82687 1.77265 1.68776 1.72667 1.89228 
2.09491 2.33876 2.34423 2.06059 1.8713 1.80666 1.85152 2.05405 2.14349 
2.05547 1.95618 1.83759 1.73128 1.6479 1.6321 1.75494 1.87683 1.99656 
2.03154 1.85405 1.71712 1.69343 1.69866 1.79432 1.86897 1.86953 1.87657 
1.9096 1.95299 2.04412 2.12565 2.15591 2.17869 2.15468 2.12129 2.01858 
1.92995 1.96653 2.00566 2.07344 2.13126 2.04152 1.95321 1.91071 1.87216 
1.87848 1.8848 
TEXTURE_COORDINATES TCoords 2 float
0 0 0.00787402 0 0.015748 0 0.023622 0 0.0314961 
0 0.0393701 0 0.0472441 0 0.0551181 0 0.0629921 0 
0.0708661 0 0.0787402 0 0.0866142 0 0.0944882 0 0.102362 
0 0.110236 0 0.11811 0 0.125984 0 0.133858 0 
0.141732 0 0.149606 0 0.15748 0 0.165354 0 0.173228 
0 0.181102 0 0.188976 0 0.19685 0 0.204724 0 
0.212598 0 0.220472 0 0.228346 0 0.23622 0 0.244094 
0 0.251969 0 0.259843 0 0.267717 0 0.275591 0 
0.283465 0 0.291339 0 0.299213 0 0.307087 0 0.314961 
0 0.322835 0 0.330709 0 0.338583 0 0.346457 0 
0.354331 0 0.362205 0 0.370079 0 0.377953 0 0.385827 
0 0.393701 0 0.401575 0 0.409449 0 0.417323 0 
0.425197 0 0.433071 0 0.440945 0 0.448819 0 0.456693 
0 0.464567 0 0.472441 0 0.480315 0 0.488189 0 
0.496063 0 0.503937 0 0.511811 0 0.519685 0 0.527559 
0 0.535433 0 0.543307 0 0.551181 0 0.559055 0 
0.566929 0 0.574803 0 0.582677 0 0.590551 0 0.598425 
0 0.606299 0 0.614173 0 0.622047 0 0.629921 0 
0.637795 0 0.645669 0 0.653543 0 0.661417 0 0.669291 
0 0.677165 0 0.685039 0 0.692913 0 0.700787 0 
0.708661 0 0.716535 0 0.724409 0 0.732283 0 0.740157 
0 0.748031 0 0.755906 0 0.76378 0 0.771654 0 
0.779528 0 0.787402 0 0.795276 0 0.80315 0 0.811024 
0 0.818898 0 0.826772 0 0.834646 0 0.84252 0 
0.850394 0 0.858268 0 0.866142 0 0.874016 0 0.88189 
0 0.889764 0 0.897638 0 0.905512 0 0.913386 0 
0.92126 0 0.929134 0 0.937008 0 0.944882 0 0.952756 
0 0.96063 0 0.968504 0 0.976378 0 0.984252 0 
0.992126 0 1 0 
FIELD FieldData 7
Curvature 1 128 double
0 0.036289049115 0.069048470486 0.10203086827 0.13515249306 0.16778142573 0.19832530607 0.22396206211 0.2409248012 
0.24563592825 0.23637920542 0.21438773583 0.18347806904 0.14840689848 0.11336574263 0.081647399238 0.057746972146 0.052330946442 
0.072318507776 0.10856889702 0.15435778708 0.20579449024 0.25730605665 0.30035731858 0.3256678292 0.32776076216 0.30841550014 
0.27513213103 0.23645284139 0.19844304155 0.16388795987 0.1332316975 0.10602613717 0.08282444097 0.069417592459 0.082010993295 
0.13452208537 0.24167420133 0.45586707089 0.92736877355 2.0067155233 3.6948298126 3.6451921649 2.0076834062 0.99751008043 
0.54918705942 0.33598541175 0.21785495021 0.14103591529 0.084268572878 0.044509190508 0.050574683925 0.095656153092 0.1533744794 
0.21957735467 0.29075932798 0.35822312542 0.40729131463 0.42317902035 0.40116432123 0.35049969937 0.28731806554 0.22494082708 
0.17031728716 0.12564557104 0.091028126652 0.06649251933 0.052884281451 0.050059427019 0.054429828301 0.061382593637 0.068281345653 
0.074053094274 0.078480128763 0.08173123085 0.084131306609 0.086083424592 0.08796109344 0.090093435157 0.092731287247 0.096080901701 
0.1002517273 0.10529553773 0.11115940059 0.11770581562 0.12459686868 0.13138179897 0.137400709 0.14198009319 0.14432926869 
0.14395789434 0.14046765487 0.13389052658 0.12452082134 0.11293581757 0.099718675312 0.085539367278 0.070879056124 0.056109295041 
0.041434691485 0.026936854952 0.01331695531 0.0089834335838 0.021855407619 0.038030684427 0.055701916292 0.074935351589 0.095845011805 
0.11851641564 0.14287505521 0.16852482756 0.19477779158 0.22024989295 0.24334014814 0.26191157766 0.27429454805 0.27929830791 
0.27686242081 0.26772318723 0.25301826548 0.2336579121 0.21011458303 0.18243402682 0.15067242155 0.1151974518 0.076772975356 
0.036485845133 0 
Torsion 1 128 double
0 0 -0.021003203769 -0.022008778081 -0.01751441698 -0.0070785755426 0.0086597762168 0.028313601489 0.050169159646 
0.072449850824 0.093107864752 0.1087788899 0.11244912326 0.088387392662 -0.0012087013829 -0.25326388755 -0.84260834504 -1.18160646 
-0.55151915931 -0.14441394906 0.012630907901 0.069084432241 0.084520517278 0.08188504906 0.070332700074 0.053692133844 0.034200903238 
0.014619321408 0.00028301730795 -0.00034767581419 0.025633965998 0.10060237494 0.27284619071 0.65911311785 1.3197596792 1.3621478707 
0.79383907083 0.44296798471 0.26682615128 0.1561571257 0.064217327852 0.0054972794733 -0.032466183324 -0.095254863746 -0.16182827188 
-0.19963999885 -0.22848974276 -0.27836303703 -0.40441647944 -0.81827699047 -2.5132639028 -1.9681984319 -0.64263092251 -0.32434471136 
-0.21645105171 -0.16808107896 -0.14144327113 -0.12380006964 -0.10984596541 -0.096174962517 -0.079166311302 -0.054429219559 -0.016385971532 
0.043834459989 0.14230599745 0.30506099525 0.54746079986 0.75556970591 0.68823506378 0.44946048388 0.26145917417 0.15384761594 
0.098055208301 0.072009816802 0.06281988546 0.06257535266 0.066870118902 0.07297030366 0.079091645688 0.084386587992 0.08795046516 
0.089591774751 0.089039655859 0.086031036267 0.080652466483 0.073144969005 0.063848384331 0.053689909973 0.04306278075 0.032544972445 
0.022670156781 0.013488951811 0.0054317512038 -0.0011702179043 -0.0059012655459 -0.0078363404027 -0.0053642146236 0.0045948786069 0.029437480259 
0.09020424863 0.27712046141 1.2928809601 2.9906028799 0.51134366533 0.17032154444 0.082958093178 0.05009004346 0.033979130449 
0.024076728002 0.01547508815 0.0060604177651 -0.0050131697881 -0.018588855699 -0.035254282297 -0.054941329503 -0.077388554772 -0.10139264459 
-0.12493257576 -0.14501788117 -0.15782954366 -0.1609470883 -0.15342887673 -0.13668033242 -0.11353020347 -0.0868322899 -0.060300674018 
0 0 
Abscissas 1 128 double
0 0.50192397608 1.0038479522 1.5057730224 2.0076981956 2.5096218066 3.0115453738 3.513467982 4.0153905233 
4.5173174183 5.0192447114 5.5211684905 6.0230918753 6.5250160221 7.0269402664 7.528862496 8.0307844149 8.5327072693 
9.034630293 9.5365567885 10.038484009 10.54040707 11.042329135 11.544253039 12.046177439 12.548102276 13.050027233 
13.551951767 14.053876172 14.555802604 15.057729724 15.559653645 16.061576351 16.563497719 17.065418525 17.567344994 
18.069274085 18.571197138 19.073117121 19.575041415 20.076968119 20.578902601 21.080842179 21.582769168 22.084694478 
22.58661602 23.088536741 23.590472469 24.092411922 24.594332255 25.096247355 25.598168778 26.100092156 26.602017034 
27.103942433 27.605866303 28.107789586 28.609715677 29.111642948 29.613566285 30.115487886 30.617412776 31.119339189 
31.621262647 32.12318461 32.625098691 33.127008393 33.628923418 34.130841688 34.632778469 35.13472759 35.63666337 
36.138589453 36.640516882 37.142445377 37.644368266 38.146286317 38.648194731 39.15009409 39.652008689 40.153938885 
40.655868094 41.157796205 41.659721582 42.161643643 42.663571749 43.165507841 43.667441938 44.169373162 44.671294487 
45.173200277 45.675119971 46.177063456 46.67899564 47.180906704 47.682823555 48.184752282 48.686678324 49.188598295 
49.690518293 50.192438362 50.694361729 51.196294301 51.698221654 52.200132689 52.702049289 53.203985524 53.70591956 
54.207844771 54.709769384 55.211691241 55.713611919 56.215526299 56.717442494 57.219370046 57.721295367 58.223204214 
58.725114206 59.227034382 59.72895541 60.230885974 60.732816319 61.234743416 61.736670161 62.238585688 62.740502864 
63.242438827 63.74437479 
ParallelTransportNormals 3 128 double
-0.21403189859 0 0.97682667162 -0.1338833788 -0.025372950077 0.98673656348 -0.053734859011 -0.050745900154 0.99664645533 
-0.02659494413 -0.05638248118 0.99781743093 -0.0044460210554 -0.06016079681 0.99816559938 0.0026772915434 -0.060387984266 0.99814806618 
0.0093795089656 -0.060515650778 0.99812028414 -0.00049576983455 -0.062735381453 0.99796545181 -0.011527144555 -0.065101010327 0.99780175913 
-0.010978747171 -0.064367981487 0.99786400695 -0.0093717387483 -0.063351676498 0.99794691002 0.021415385132 -0.020620222093 0.99784983214 
0.055477320498 0.026792819354 0.99773255544 0.094908294714 0.10988865128 0.98455812935 0.13502617429 0.1975496765 0.96971319459 
0.17118819883 0.26536891005 0.94560518197 0.20674012505 0.33012801037 0.9200685558 0.21799639218 0.34679950751 0.9121820506 
0.2248545088 0.35476588926 0.90749067948 0.1785253238 0.31462034035 0.92881317055 0.12108674906 0.26442550951 0.95556925431 
-0.016736449838 0.12229302513 0.96655686376 -0.1737853044 -0.041828262312 0.97377311443 -0.27311860084 -0.23256578497 0.90535071091 
-0.3568965215 -0.43047685935 0.81654233647 -0.3716737747 -0.52512352168 0.76138109927 -0.36779609586 -0.59185174991 0.71531665898 
-0.36040023353 -0.62783633923 0.68905332683 -0.3519276728 -0.65441220188 0.66884988938 -0.33781445235 -0.6878273157 0.64062739068 
-0.32178357666 -0.72356756992 0.6096786515 -0.29777258883 -0.7682260134 0.56171436255 -0.27073316849 -0.81626888728 0.50729271519 
-0.24252694321 -0.85758803349 0.44717355676 -0.21383039352 -0.89608167937 0.3846601432 -0.19375029145 -0.918969599 0.34116748011 
-0.1776595333 -0.93463219658 0.30648126702 -0.20207228018 -0.91222462292 0.34435735513 -0.24708266195 -0.87045686088 0.41913424441 
-0.44374694097 -0.562694288 0.47643182938 -0.72517027303 -0.10626775928 0.52396026689 -0.84896229072 0.2162456168 0.31595248021 
-0.86946623387 0.45101226725 -0.059495669973 -0.83520710266 0.47764526731 -0.22779855162 -0.79364771914 0.47653278043 -0.36848770366 
-0.74529174331 0.44111806275 -0.48362020255 -0.69545269908 0.39821833603 -0.59317604431 -0.6621863475 0.35598155288 -0.65554396824 
-0.63303191016 0.3139092552 -0.70620391712 -0.62745151338 0.30624419068 -0.71590023093 -0.62832396657 0.30799731279 -0.71438369427 
-0.64210773028 0.34425498813 -0.6819647252 -0.65988253291 0.39117842933 -0.63999344845 -0.68007697913 0.4594783384 -0.55849683745 
-0.70111009357 0.53518750565 -0.46330042309 -0.71244555396 0.60425042858 -0.29455942491 -0.72005374697 0.6707588853 -0.097551762789 
-0.70964301376 0.65446660964 0.12467379937 -0.69164783535 0.60332222287 0.35751396636 -0.68127214233 0.53639007179 0.48659991848 
-0.67425796629 0.46249277346 0.56991223419 -0.67227218701 0.42996402938 0.60244802989 -0.67261564334 0.41659787603 0.61146331126 
-0.67229038366 0.41690599324 0.61167920784 -0.67162696565 0.42412895678 0.607445405 -0.67127378043 0.42794403036 0.60518668392 
-0.67109297486 0.42986552299 0.60402540941 -0.67126159825 0.42236405256 0.60893295498 -0.67164317449 0.40911993606 0.6175390278 
-0.67054664236 0.38901219297 0.63108770684 -0.66846482612 0.36432926289 0.64793105049 -0.66452423242 0.33922710203 0.66521524878 
-0.65923247935 0.31382019916 0.68281990765 -0.65346492356 0.29191666207 0.69806351629 -0.64732047202 0.27278823244 0.71143687544 
-0.64144735772 0.25689560232 0.72271458937 -0.63580836894 0.24379500776 0.73218405902 -0.63000910698 0.2319055967 0.74103841591 
-0.62405923374 0.22115435405 0.74931474153 -0.61740987473 0.21053343287 0.75782518029 -0.61004467968 0.20004587936 0.76657520452 
-0.60215583718 0.19000376768 0.77532670764 -0.59368374009 0.18045780275 0.78407985801 -0.58585705967 0.17242808045 0.79180049337 
-0.57881308623 0.16623712953 0.7982689815 -0.5736350195 0.16195842081 0.80293314084 -0.57092231162 0.16020629242 0.80521330214 
-0.57038531434 0.15960505801 0.80571635424 -0.5729811961 0.16066103467 0.80366048689 -0.57662753305 0.16164747598 0.8008384432 
-0.58192238908 0.16252479286 0.79681400997 -0.58657191535 0.1630086273 0.79331569209 -0.59011709666 0.16281910002 0.79071770899 
-0.59225471224 0.16273424734 0.78914618526 -0.59176180885 0.16284501504 0.78949295263 -0.59019902306 0.1633335998 0.79055359557 
-0.58644140882 0.16459726382 0.79307873072 -0.58236870333 0.16605386804 0.79577252589 -0.57758314052 0.16794697699 0.79884789477 
-0.57335358388 0.1696399395 0.80154958213 -0.57051785418 0.17083116386 0.80331450405 -0.56888230088 0.17151671207 0.80433377024 
-0.5705974059 0.17079051119 0.80327131117 -0.57365977967 0.16952282988 0.80133669743 -0.58093457985 0.16656213337 0.79667516872 
-0.58939379636 0.1632503275 0.79111454244 -0.6020315071 0.15869984533 0.78238199602 -0.61568160111 0.15412301177 0.77265241721 
-0.6333929561 0.14944046741 0.75892315876 -0.65182797034 0.14523347995 0.74413958366 -0.67359631357 0.14321700907 0.72449960105 
-0.69554224511 0.14224907027 0.70401908236 -0.71843674743 0.14688176411 0.67904892154 -0.74090020494 0.15283864852 0.6537253779 
-0.76066720672 0.16707917555 0.62619120304 -0.7797042199 0.18250236566 0.59867345722 -0.79335043681 0.20665924796 0.57127703615 
-0.80628876644 0.23199812741 0.54374371181 -0.81293451953 0.26784405749 0.51499342206 -0.81864781933 0.30561464472 0.48539721202 
-0.81393473499 0.36490611145 0.44634220117 -0.80784578057 0.42532715612 0.40663194484 -0.78135906705 0.50249459216 0.3572074433 
-0.75229166329 0.58138309695 0.30581314195 -0.64090926835 0.71516767449 0.19158911693 -0.53851634001 0.8381547468 0.086583901208 
-0.53851634001 0.8381547468 0.086583901208 -0.53851634001 0.8381547468 0.086583901208 
FrenetTangent 3 128 double
-0.98361426305 0.16163153204 -0.079863817655 -0.98361426305 0.16163153204 -0.079863817655 -0.98767798628 0.1371882175 -0.075309948891 
-0.99288230118 0.097606522085 -0.068247365123 -0.99733072334 0.043080119764 -0.058953639017 -0.99853518122 -0.025765215637 -0.047577784043 
-0.99362560187 -0.10746583187 -0.034047882361 -0.97978061211 -0.19925669223 -0.018075473174 -0.95494686682 -0.29677597219 0.00070984639943 
-0.91871476371 -0.39427940878 0.022515122653 -0.87292361474 -0.48557622822 0.047117824809 -0.82149663805 -0.56543051873 0.073699404019 
-0.76940960115 -0.63074575864 0.10083974226 -0.72129446103 -0.68095468755 0.1266294357 -0.68035208637 -0.71761752336 0.14881575437 
-0.64788684253 -0.74366506634 0.16493910504 -0.62336205942 -0.7626767866 0.1724640892 -0.60471903504 -0.77832002063 0.16891664855 
-0.58873270497 -0.79390232442 0.15202927802 -0.57131672269 -0.81192345379 0.11990624488 -0.54780909722 -0.83356180735 0.0712734617 
-0.51337998593 -0.85814092781 0.0059277373515 -0.46382287157 -0.8827845066 -0.074564460119 -0.39687725492 -0.90270668718 -0.16615980694 
-0.31367448577 -0.91258147025 -0.2623039785 -0.21923546168 -0.90869916729 -0.35524869559 -0.12112489061 -0.89059084357 -0.43837964165 
-0.026838703944 -0.86091332031 -0.50804324509 0.058308632455 -0.82392048646 -0.56369773404 0.13180091622 -0.78389971194 -0.6067369777 
0.19337835324 -0.74441492935 -0.63910188973 0.24416719864 -0.7082850624 -0.66235538006 0.28597243059 -0.67786139753 -0.67729143999 
0.32082163492 -0.65528461945 -0.68386807651 0.35070328847 -0.64264738051 -0.68118393094 0.37740308463 -0.64209737066 -0.66729144929 
0.40236091433 -0.65597576487 -0.63859336868 0.42642750146 -0.68700233435 -0.58837690182 0.44912981919 -0.73815326817 -0.50340059416 
0.46585041219 -0.81005077882 -0.35609146183 0.45719676977 -0.88464737541 -0.091488441343 0.36514711041 -0.86518404312 0.34369195407 
0.15221260463 -0.60582549863 0.78090126662 -0.05143111972 -0.26050928254 0.96410048939 -0.17355893065 -0.0076578147149 0.98479371214 
-0.24034604525 0.16000191163 0.95740961287 -0.27634495586 0.27576831036 0.92064396179 -0.29382374849 0.35874268967 0.88598605375 
-0.298874921 0.41807481469 0.8578386975 -0.29488698083 0.45782574858 0.8387116623 -0.28400240915 0.4794071747 0.83036822702 
-0.26771620027 0.48261060328 0.83391548835 -0.24711786189 0.4660101392 0.84956889803 -0.22302121544 0.42717883529 0.87623043781 
-0.19610565892 0.36307920283 0.91088751392 -0.16711558839 0.27109320321 0.94793504803 -0.13713774307 0.15103484873 0.97896972062 
-0.10783518253 0.0077893922405 0.99413826945 -0.081334436689 -0.14734804617 0.98573488459 -0.05957950125 -0.29914554447 0.95234564432 
-0.043488279182 -0.43409894636 0.89981491116 -0.032584220592 -0.54487830767 0.83788179262 -0.025326909886 -0.63057600699 0.77571415292 
-0.019737239949 -0.69418186417 0.71952899929 -0.013878901123 -0.74000594673 0.67245711752 -0.0061037443256 -0.77217916429 0.63537554449 
0.0048511240071 -0.79407816153 0.60779629809 0.019836372074 -0.80825260174 0.58850169933 0.039279559655 -0.81653727482 0.57595485502 
0.063210429436 -0.82020827257 0.56856207332 0.091308690675 -0.8201347953 0.56483771169 0.12298676881 -0.81689621002 0.56352004113 
0.15749871718 -0.81086985189 0.563634844 0.19404928821 -0.80229699848 0.56450367579 0.23190122483 -0.79131707862 0.56571998639 
0.27043903392 -0.77798807459 0.56709548114 0.30920326747 -0.76230058293 0.568586986 0.34789039441 -0.74417825514 0.57023766804 
0.38632442128 -0.72347697659 0.57213154594 0.4244176776 -0.69998512552 0.57436091352 0.46212805954 -0.6734226463 0.57700918194 
0.49941832038 -0.64345112131 0.58013101602 0.53621299503 -0.60969071224 0.58374040409 0.5723652366 -0.57174864531 0.5877937755 
0.60763217618 -0.52926475219 0.59216717282 0.64165179452 -0.48198011539 0.59663903908 0.67393953902 -0.42982361849 0.60088031648 
0.70391130328 -0.37300653735 0.60446257139 0.73093382765 -0.31209583457 0.60690355876 0.75440634402 -0.24806567432 0.60772896041 
0.77386589547 -0.18226574309 0.6065564893 0.7890777062 -0.11631983778 0.60317996395 0.80009508538 -0.051979343226 0.59761693603 
0.80726092915 0.0090791189274 0.59012486972 0.81114930178 0.065420979043 0.58116856911 0.81246866853 0.115950085 0.57135824178 
0.81195418667 0.15994436262 0.56138061921 0.81027541346 0.19702907201 0.55193595564 0.80797607464 0.22709193871 0.54369468839 
0.80544465488 0.25019322779 0.53727298154 0.80291865379 0.26645001088 0.53322230552 0.80049457876 0.27597147766 0.53202271841 
0.79814533937 0.27879064562 0.53407845224 0.79573757395 0.27479627044 0.53971170375 0.79302563236 0.26372373884 0.54914491347 
0.78963675801 0.24516015308 0.56246803441 0.78504146114 0.21854902473 0.57960868531 0.77850849293 0.1832390492 0.60028991103 
0.76905665641 0.13858357288 0.62397632372 0.75542871032 0.084057409955 0.64981675529 0.7360899064 0.01945246869 0.67660420569 
0.70928444417 -0.054896271247 0.70278159955 0.67320768712 -0.13783917619 0.72649278834 0.62627118883 -0.22720872458 0.74576175386 
0.56745297936 -0.31975148099 0.75878594255 0.49664945999 -0.41133518077 0.76429227587 0.41487235482 -0.49745437046 0.76185305572 
0.32423455136 -0.57389894818 0.75200528787 0.22769670565 -0.6374060571 0.73611665421 0.12873467691 -0.68607434526 0.71605123821 
0.031060247161 -0.71951692222 0.69377997931 -0.061603168597 -0.73879363213 0.67111028806 -0.14570109081 -0.74621894175 0.64956022285 
-0.21805931646 -0.74504769567 0.63036026657 -0.2761085094 -0.73902404412 0.61449780573 -0.31801732322 -0.73181878541 0.60274890913 
-0.34269154874 -0.72643679224 0.59569462755 -0.34269154874 -0.72643679224 0.59569462755 
FrenetNormal 3 128 double
-0.17396069267 -0.96720998931 0.18504732904 -0.17396069267 -0.96720998931 0.18504732904 -0.14872927081 -0.97256146626 0.17889605461 
-0.10804548553 -0.97927000628 0.17133717595 -0.052284206963 -0.98494756397 0.16475635932 0.017756358469 -0.98668541612 0.16166818286 
0.10050107635 -0.98127961088 0.16428590605 0.19315808377 -0.96558999854 0.17414335876 0.29138752874 -0.93714915868 0.19194989578 
0.38942344894 -0.89497024517 0.21766404774 0.48089737612 -0.84019291399 0.25062637717 0.56018928019 -0.77615732754 0.28942662847 
0.62381455079 -0.70804414361 0.33095150238 0.67165880677 -0.64302182283 0.36796383334 0.70868044895 -0.59242246675 0.38315485402 
0.74643859488 -0.57663596629 0.33214512859 0.78128005398 -0.61651667229 0.097512409682 0.67871117667 -0.61458216446 -0.40204465149 
0.47367305624 -0.49123897188 -0.73097066172 0.39731615639 -0.40144422977 -0.825216579 0.41284984254 -0.34344964242 -0.84356229802 
0.46924521934 -0.28649438412 -0.83530227582 0.54189281788 -0.21611393513 -0.81218651858 0.61690488177 -0.1282926065 -0.7765110263 
0.68443456398 -0.025828504935 -0.72861664541 0.73706348631 0.084317339125 -0.67054306608 0.7708807416 0.19383060459 -0.60677226284 
0.78584119151 0.29594802152 -0.54301785448 0.78521023679 0.38654421583 -0.48376487394 0.77494786373 0.46315443117 -0.43005090559 
0.76358542592 0.52321824829 -0.37839128158 0.76373469764 0.5613513916 -0.31873802215 0.793147275 0.56407078573 -0.22965528262 
0.86894227775 0.49091868675 -0.062754768207 0.93646126218 0.235303831 0.26013921572 0.76652280106 -0.18772871246 0.61416669233 
0.48493277748 -0.4389332561 0.75642435049 0.29437500114 -0.5096652987 0.80844581884 0.16395916215 -0.48576384733 0.85857491098 
0.044494063462 -0.38047211212 0.92372141375 -0.10403334487 -0.15535989428 0.98236468096 -0.29839730706 0.24093302801 0.92353144134 
-0.44437222039 0.66379415075 0.60159010561 -0.45578467289 0.86509757633 0.2094433465 -0.4003327574 0.91417085171 -0.063445545507 
-0.32447079906 0.91634309339 -0.23459334122 -0.23751973666 0.90863388956 -0.34346590726 -0.13574488443 0.90184490501 -0.41018178123 
-0.0020604259192 0.8986417662 -0.43867839095 0.22298574601 0.88648005689 -0.4055002661 0.72915477481 0.67036361352 -0.13764425175 
0.85292881238 -0.28386566137 0.43810127517 0.54642086222 -0.65704293656 0.51934460702 0.39528985291 -0.7820207734 0.48186039696 
0.31121289024 -0.85785401798 0.4089413415 0.25663915674 -0.91635149095 0.30730487837 0.21648502632 -0.95984579149 0.17841045353 
0.18317122921 -0.98269439752 0.027568494136 0.15259125457 -0.97919299371 -0.13377963261 0.12314956281 -0.94895513421 -0.29037620156 
0.095704672484 -0.89833503759 -0.42875957821 0.073442343353 -0.83736592198 -0.54168674979 0.061937015317 -0.7754621074 -0.62834888885 
0.070006375636 -0.71886237149 -0.69161839061 0.112418184 -0.66941275176 -0.73433556341 0.21342408873 -0.62175322573 -0.75357354295 
0.40360309095 -0.55454408988 -0.72772618295 0.67084750747 -0.42568588944 -0.6072521266 0.8893650909 -0.23418812867 -0.39266481313 
0.97880851816 -0.060236825155 -0.1957176785 0.9954361112 0.059368369095 -0.074715094009 0.98998970015 0.14060856869 -0.012232089401 
0.97926574279 0.20188233268 0.016796688549 0.96680959098 0.25390192694 0.0285136158 0.95259176124 0.30249596098 0.032636329622 
0.93595266107 0.35043951683 0.034420361556 0.91625582873 0.39892160946 0.036562355218 0.89294568713 0.44835271492 0.040346534574 
0.86562391442 0.49858018455 0.04596779693 0.83399730028 0.54921122778 0.053061571886 0.79785525259 0.59975814382 0.06096855609 
0.75724919257 0.64952173411 0.068521363573 0.71219159698 0.69798744722 0.074810779378 0.66303767779 0.7444584388 0.078502679807 
0.61017826962 0.78836476764 0.078507785785 0.5542089984 0.82910388923 0.073750436961 0.4957676818 0.86612940203 0.063515861112 
0.43565876627 0.89886593818 0.04734410789 0.3745250193 0.9268642161 0.02556823884 0.31344062815 0.94960665285 -0.0014756309604 
0.2533127551 0.96683299153 -0.032659066002 0.19535099641 0.97845110718 -0.066868670218 0.14075409823 0.98469343366 -0.10279652496 
0.090530071789 0.98614392611 -0.13901245662 0.045468380038 0.98366176399 -0.17419001259 0.0058882931745 0.97834112954 -0.20691535048 
-0.028532580795 0.97145278501 -0.2355108879 -0.059054750973 0.96444777184 -0.2575908224 -0.08851765438 0.95905392437 -0.26903567611 
-0.12374721682 0.95754128996 -0.260386836 -0.18393076309 0.96162948359 -0.20356377547 -0.35594777915 0.93308249067 0.051558162548 
-0.52230393294 -0.12163058402 0.84404064041 -0.23030592569 -0.68689991602 0.68929506452 -0.15782174737 -0.78172036463 0.60332873922 
-0.14174802932 -0.81902041203 0.55597937089 -0.14814214003 -0.84230129631 0.51824939226 -0.16844186956 -0.86034711342 0.48107190836 
-0.19981513079 -0.87516051418 0.44064496813 -0.24104857881 -0.88653637193 0.3949035881 -0.29184309581 -0.89278364144 0.34316902106 
-0.35155694313 -0.89167958112 0.28515827247 -0.41912076036 -0.88054452269 0.22131229474 -0.49287038833 -0.85655680175 0.15293536439 
-0.57050047755 -0.81716403768 0.082293016971 -0.6489794954 -0.76070626789 0.012312129812 -0.72513297025 -0.68653528621 -0.053399215734 
-0.79543122557 -0.59567340753 -0.11163492708 -0.85670117718 -0.49046762849 -0.15970159181 -0.90586726852 -0.37516923275 -0.19660248886 
-0.94078768715 -0.25547113682 -0.2228295895 -0.96087385424 -0.13802517158 -0.2401468056 -0.96751566349 -0.029636928426 -0.25106790591 
-0.96406502139 0.064011531449 -0.25783940424 -0.95496712309 0.13867712975 -0.26230983111 -0.94480613316 0.19179845947 -0.26562138787 
-0.93742580491 0.22283705013 -0.2675378653 -0.93742580491 0.22283705013 -0.2675378653 
FrenetBinormal 3 128 double
-0.047335598928 0.19590835722 0.97947907412 -0.047335598928 0.19590835722 0.97947907412 -0.048701123469 0.18789248875 0.98098145408 
-0.050108971824 0.17749146923 0.98284580138 -0.050968519446 0.16739892328 0.98457087633 -0.05110972124 0.16058656008 0.98569759719 
-0.051065614313 0.15981683345 0.98582497573 -0.052152725755 0.16713086288 0.98455440067 -0.056300884977 0.18350879195 0.98140446994 
-0.065670087213 0.2087390909 0.97576402453 -0.082110148388 0.24143652142 0.96693656961 -0.10644831621 0.27904861834 0.95435875046 
-0.13734726749 0.31754256196 0.93824434422 -0.1691412066 0.35046205053 0.92117729204 -0.18679684111 0.36614301996 0.91161736989 
-0.15189490888 0.33830937244 0.92869516268 0.031956535095 0.19552828944 0.98017726351 0.41673256092 -0.12847843639 0.89990403047 
0.65500201365 -0.35833416217 0.66525858907 0.71814836506 -0.42381934308 0.55194210764 0.72764015868 -0.43268586348 0.53228069946 
0.71850533343 -0.4260459082 0.54975901078 0.70087125618 -0.41711662871 0.57861316984 0.67964462138 -0.41068436059 0.60780057962 