# vtk DataFile Version 4.2
vtk output
ASCII
DATASET POLYDATA
POINTS 128 float
0 0 0 -0.273357 0.0353617 0.190124 -0.819458 0.10609 0.553687 
-1.29538 0.167377 0.833122 -1.70654 0.216553 1.04043 -2.14638 0.261683 1.25404 
-2.61118 0.29946 1.47019 -3.07689 0.324061 1.66819 -3.54338 0.331841 1.84892 
-4.0161 0.319341 2.01817 -4.4936 0.280878 2.17468 -4.97214 0.209823 2.3152 
-5.44748 0.0981967 2.43736 -5.91449 -0.0618192 2.53901 -6.36432 -0.27481 2.61772 
-6.78756 -0.542773 2.67147 -7.1789 -0.859223 2.70103 -7.53555 -1.21454 2.70832 
-7.8614 -1.59829 2.69627 -8.16292 -2.00021 2.66799 -8.44737 -2.41301 2.62543 
-8.72218 -2.8307 2.56984 -8.99393 -3.24841 2.50107 -9.26864 -3.66168 2.41818 
-9.55114 -4.06596 2.31878 -9.84539 -4.45654 2.19971 -10.1531 -4.82823 2.05657 
-10.4743 -5.17571 1.88446 -10.8056 -5.49435 1.67897 -11.1417 -5.78022 1.43619 
-11.4747 -6.03255 1.15481 -11.7957 -6.25241 0.835038 -12.0964 -6.44377 0.479186 
-12.3691 -6.61215 0.0907448 -12.6079 -6.76394 -0.325826 -12.808 -6.9059 -0.765537 
-12.9663 -7.04391 -1.2232 -13.0801 -7.18324 -1.69351 -13.1482 -7.32784 -2.17105 
-13.1698 -7.48084 -2.65033 -13.1453 -7.64438 -3.12599 -13.0754 -7.81996 -3.59276 
-12.9617 -8.00859 -4.04563 -12.8059 -8.21101 -4.4797 -12.61 -8.42822 -4.88964 
-12.3755 -8.66146 -5.26966 -12.104 -8.91266 -5.61176 -11.7972 -9.18424 -5.90594 
-11.4582 -9.47936 -6.13509 -11.0928 -9.80109 -6.27699 -10.7208 -10.1439 -6.30787 
-10.3725 -10.4954 -6.20476 -10.0765 -10.8375 -5.97249 -9.85833 -11.1483 -5.63735 
-9.72543 -11.416 -5.22867 -9.67062 -11.6366 -4.77702 -9.68312 -11.8093 -4.30321 
-9.74951 -11.936 -3.81987 -9.85748 -12.0197 -3.33498 -9.99569 -12.0643 -2.85278 
-10.1545 -12.0738 -2.37524 -10.3257 -12.0521 -1.90248 -10.5017 -12.0032 -1.43366 
-10.6758 -11.9312 -0.967102 -10.8411 -11.8407 -0.500651 -10.9912 -11.7369 -0.0317481 
-11.1191 -11.626 0.442074 -11.2178 -11.5155 0.923133 -11.2799 -11.4156 1.41266 
-11.2979 -11.3395 1.91059 -11.2667 -11.3024 2.41259 -11.1843 -11.3218 2.90964 
-11.0551 -11.4088 3.3901 -10.891 -11.5672 3.83989 -10.7045 -11.7932 4.2505 
-10.5084 -12.0747 4.6202 -10.312 -12.4002 4.95055 -10.1202 -12.7595 5.24669 
-9.93583 -13.1442 5.51372 -9.75973 -13.5485 5.75634 -9.59175 -13.9674 5.97863 
-9.43093 -14.3977 6.18384 -9.27586 -14.8366 6.3746 -9.12466 -15.2821 6.55285 
-8.97501 -15.7323 6.72006 -8.82398 -16.1857 6.87713 -8.66788 -16.6406 7.02452 
-8.50198 -17.0952 7.16218 -8.32044 -17.5468 7.28959 -8.11582 -17.9918 7.40558 
-7.87925 -18.4241 7.50839 -7.59976 -18.8344 7.59535 -7.26942 -19.2098 7.664 
-6.88586 -19.5327 7.71245 -6.45332 -19.7909 7.74117 -5.98682 -19.9829 7.75481 
-5.50015 -20.1126 7.75864 -5.00269 -20.1922 7.75832 -4.50117 -20.2336 7.75858 
-3.99816 -20.2466 7.76233 -3.49523 -20.2392 7.77187 -2.99292 -20.2172 7.78879 
-2.49153 -20.1856 7.81438 -1.99109 -20.1484 7.84951 -1.49165 -20.1091 7.89496 
-0.99337 -20.0695 7.95149 -0.496469 -20.031 8.01981 -0.00125583 -19.9949 8.10059 
0.491884 -19.9622 8.19447 0.982409 -19.9328 8.30216 1.46971 -19.9068 8.4244 
1.95309 -19.8841 8.56196 2.43173 -19.8645 8.71563 2.90471 -19.8484 8.88634 
3.37097 -19.8361 9.07498 3.82929 -19.8281 9.28235 4.27822 -19.8257 9.5095 
4.7157 -19.831 9.75816 5.13958 -19.8461 10.0294 5.54775 -19.8721 10.322 
5.93685 -19.9122 10.6368 6.29925 -19.9774 10.9831 6.62775 -20.0741 11.3627 
6.91957 -20.1857 11.7462 7.16951 -20.3111 12.1251 7.3596 -20.526 12.5964 
7.47374 -20.8423 13.1628 7.51125 -21.0138 13.451 
LINES 1 129
128 0 1 2 3 4 5 6 7 8 9 10 11 12 13 14 15 16 17 18 19 20 21 22 23 24 25 26 27 28 29 30 31 32 33 34 35 36 37 38 39 40 41 42 43 44 45 46 47 48 49 50 51 52 53 54 55 56 57 58 59 60 61 62 63 64 65 66 67 68 69 70 71 72 73 74 75 76 77 78 79 80 81 82 83 84 85 86 87 88 89 90 91 92 93 94 95 96 97 98 99 100 101 102 103 104 105 106 107 108 109 110 111 112 113 114 115 116 117 118 119 120 121 122 123 124 125 126 127 

CELL_DATA 1
FIELD FieldData 2
Length 1 1 double
58.687823195 
Tortuosity 1 1 double
1.2523512666 
POINT_DATA 128
SCALARS MaximumInscribedSphereRadius float
LOOKUP_TABLE default
0.9796 0.967481 0.955362 1.02401 1.09988 1.27469 1.45104 1.50242 1.54666 
1.53782 1.52511 1.44065 1.34956 1.29649 1.24767 1.25758 1.27519 1.43356 
1.61314 1.72714 1.82983 1.82886 1.80756 1.71381 1.60406 1.50201 1.40185 
1.58398 1.84312 1.88772 1.86809 1.72031 1.53069 1.63075 1.83369 1.92092 
1.96356 1.87048 1.72081 1.68766 1.70692 1.7878 1.89852 2.04781 2.21716 
2.27062 2.25938 2.15352 1.99119 1.91392 1.89056 1.89665 1.9222 1.89097 
1.82107 1.77354 1.74199 1.8047 1.93874 1.9542 1.87394 1.78319 1.68339 
1.66561 1.72348 1.7774 1.82743 1.85823 1.86874 1.91529 2.00241 2.025 
1.97047 1.86367 1.69104 1.58278 1.56051 1.53099 1.49112 1.43591 1.35726 
1.35621 1.4823 1.65135 1.89614 2.02875 1.94846 1.85638 1.74018 1.67695 
1.73105 1.76261 1.74027 1.71336 1.6747 1.69668 1.88545 2.03953 2.08992 
2.11952 2.08108 2.02266 1.89221 1.75808 1.60916 1.45473 1.27572 1.11849 
1.07066 1.0425 1.12646 1.21943 1.37144 1.51761 1.61886 1.69826 1.57759 
1.46305 1.41753 1.38383 1.52026 1.64931 1.63991 1.63097 1.64691 1.66914 
1.76457 1.86 
TEXTURE_COORDINATES TCoords 2 float
0 0 0.00787402 0 0.015748 0 0.023622 0 0.0314961 
0 0.0393701 0 0.0472441 0 0.0551181 0 0.0629921 0 
0.0708661 0 0.0787402 0 0.0866142 0 0.0944882 0 0.102362 
0 0.110236 0 0.11811 0 0.125984 0 0.133858 0 
0.141732 0 0.149606 0 0.15748 0 0.165354 0 0.173228 
0 0.181102 0 0.188976 0 0.19685 0 0.204724 0 
0.212598 0 0.220472 0 0.228346 0 0.23622 0 0.244094 
0 0.251969 0 0.259843 0 0.267717 0 0.275591 0 
0.283465 0 0.291339 0 0.299213 0 0.307087 0 0.314961 
0 0.322835 0 0.330709 0 0.338583 0 0.346457 0 
0.354331 0 0.362205 0 0.370079 0 0.377953 0 0.385827 
0 0.393701 0 0.401575 0 0.409449 0 0.417323 0 
0.425197 0 0.433071 0 0.440945 0 0.448819 0 0.456693 
0 0.464567 0 0.472441 0 0.480315 0 0.488189 0 
0.496063 0 0.503937 0 0.511811 0 0.519685 0 0.527559 
0 0.535433 0 0.543307 0 0.551181 0 0.559055 0 
0.566929 0 0.574803 0 0.582677 0 0.590551 0 0.598425 
0 0.606299 0 0.614173 0 0.622047 0 0.629921 0 
0.637795 0 0.645669 0 0.653543 0 0.661417 0 0.669291 
0 0.677165 0 0.685039 0 0.692913 0 0.700787 0 
0.708661 0 0.716535 0 0.724409 0 0.732283 0 0.740157 
0 0.748031 0 0.755906 0 0.76378 0 0.771654 0 
0.779528 0 0.787402 0 0.795276 0 0.80315 0 0.811024 
0 0.818898 0 0.826772 0 0.834646 0 0.84252 0 
0.850394 0 0.858268 0 0.866142 0 0.874016 0 0.88189 
0 0.889764 0 0.897638 0 0.905512 0 0.913386 0 
0.92126 0 0.929134 0 0.937008 0 0.944882 0 0.952756 
0 0.96063 0 0.968504 0 0.976378 0 0.984252 0 
0.992126 0 1 0 
FIELD FieldData 7
Curvature 1 128 double
0 0.015577635377 0.02944965096 0.043174250699 0.056892918496 0.070854945348 0.085332286337 0.10048859959 0.11625740004 
0.13222541327 0.14757033329 0.16108277138 0.1712998961 0.17680551333 0.17660249643 0.17047526744 0.15912394029 0.1440744086 
0.12741396689 0.11157267692 0.099120467151 0.092398726595 0.092556018255 0.098808509531 0.10903588098 0.12096182676 0.13278579614 
0.14325379116 0.15161213641 0.15756596227 0.16125866964 0.16320677772 0.16413446493 0.16483220397 0.16597216762 0.1680150118 
0.17121042042 0.17569388472 0.18148175886 0.18886767581 0.19827011142 0.21042247125 0.22641968382 0.2476588289 0.27588740273 
0.31295401116 0.3604902917 0.41893340503 0.48577398569 0.55322791435 0.60732616321 0.63164976125 0.61643242281 0.56535375802 
0.49278343906 0.41432255644 0.34041380832 0.27539760885 0.21985209022 0.17254521614 0.1319092549 0.096867148076 0.067668554548 
0.048428529636 0.048785322458 0.067826228339 0.095036813538 0.12521086387 0.15588323878 0.18492254329 0.20985684945 0.22814232286 
0.23769626853 0.23776819701 0.22907432973 0.21363419586 0.19398250405 0.17249259819 0.15095027647 0.13051883248 0.11193881412 
0.09581881514 0.082969159929 0.074782428722 0.072987087841 0.078663182763 0.091243700668 0.10905048032 0.13017922557 0.15266136337 
0.17428079717 0.19250495455 0.20480447067 0.20922237541 0.2050274375 0.19304202999 0.17518317788 0.15390731382 0.13157127263 
0.11000445998 0.09054417904 0.074105795673 0.06133606135 0.052777968937 0.048488488684 0.047865650082 0.049863012714 0.053388075942 
0.05780126814 0.062739984054 0.068163514516 0.074105721511 0.080741953067 0.088204503373 0.096649036634 0.10606438196 0.11629507734 
0.12683953298 0.13674455572 0.14456891567 0.14852096177 0.14664089295 0.1374597619 0.12036512071 0.09595064888 0.065712736475 
0.031704261401 0 
Torsion 1 128 double
0 0 0.070723554855 0.091234219031 0.10675969973 0.11530524952 0.11624311685 0.11016712582 0.098601973165 
0.083493144278 0.066325926764 0.048012863982 0.02867735132 0.0076730930001 -0.016490240973 -0.046286506577 -0.085331362912 -0.13870022221 
-0.21186362842 -0.30572350507 -0.40306791294 -0.45613985349 -0.42041423513 -0.31463693981 -0.19358247116 -0.089142001451 -0.0061450258183 
0.059869161406 0.11409771154 0.16029788098 0.20051779495 0.23497291919 0.26243318274 0.28160766396 0.29155497734 0.29250596235 
0.28655064098 0.2764043562 0.26509066136 0.25460492243 0.24595875559 0.23915150279 0.23307789252 0.22653201217 0.21829158014 
0.20755195213 0.19382775151 0.17729658764 0.15806204411 0.13668575463 0.11392487294 0.09019223924 0.065580609575 0.039648938363 
0.011979782048 -0.017447452171 -0.048921687188 -0.08383404292 -0.12530155378 -0.18087193837 -0.2683601819 -0.43153875464 -0.78620850091 
-1.430648225 -1.4005308315 -0.77201388371 -0.44458520423 -0.3006943804 -0.23037393911 -0.19126935004 -0.16719574093 -0.15086009978 
-0.13842969619 -0.12764520163 -0.11665223044 -0.10360366523 -0.086654986267 -0.063039404311 -0.029227865007 0.019654086933 0.090652055589 
0.19157165321 0.32407386272 0.46128332954 0.53129325776 0.48624133203 0.37706341779 0.27249491517 0.19672958788 0.14701073248 
0.11600486207 0.097554420068 0.087570067448 0.08395804694 0.08557874591 0.092108671279 0.10426349675 0.1233147268 0.15157729404 
0.19286768547 0.25130836095 0.32934102777 0.41925295757 0.48995017849 0.49795110403 0.43368563147 0.33613564521 0.24582176604 
0.1769610984 0.13104522086 0.10304594128 0.08741109058 0.080369884477 0.078317965752 0.077708339274 0.076930182387 0.074443325082 
0.069725272983 0.062957977814 0.055242473909 0.047019519539 0.038650124458 0.030771417886 0.023510160943 0.017157395789 0.011617937845 
0 0 
Abscissas 1 128 double
0 0.50301019997 1.0060203999 1.5090311622 2.0120419747 2.5150527375 3.0180634996 3.5210710789 4.0240784764 
4.5270900196 5.0301018642 5.5331119496 6.0361218725 6.5391334232 7.0421451564 7.5451542548 8.0481630074 8.5511762036 
9.0541900697 9.557197952 10.060204802 10.563215177 11.066226243 11.569239032 12.072252202 12.575265729 13.078279345 
13.581278497 14.084273704 14.58728364 15.090297986 15.593305388 16.096310522 16.599318367 17.102327173 17.605342427 
18.108360164 18.611370197 19.114377018 19.617386622 20.120397479 20.623408786 21.126420311 21.629426278 22.132429352 
22.635443426 23.138463639 23.641479919 24.144493852 24.647503174 25.150509574 25.6535068 26.156497963 26.659510063 
27.162536426 27.665552264 28.168560584 28.671570588 29.174581866 29.677592204 30.180601784 30.683613422 31.186626835 
31.689634044 32.192635533 32.695645849 33.198664878 33.701679045 34.20468808 34.707698345 35.210709994 35.713721782 
36.216733737 36.71974031 37.222740104 37.725753947 38.228786559 38.731810484 39.234822024 39.737833353 40.24084436 
40.743851457 41.246852147 41.749861705 42.252886893 42.755896699 43.258877311 43.761868682 44.264882109 44.767896592 
45.270913415 45.773924951 46.276923848 46.779929075 47.282950542 47.785967699 48.288973 48.791979962 49.294991889 
49.7980027 50.301009862 50.804017396 51.30702627 51.810036071 52.313049578 52.816062124 53.31907038 53.822079229 
54.325091055 54.828102624 55.331112721 55.834122892 56.337133544 56.840144397 57.343156791 57.846168703 58.349176207 
58.852183278 59.355185472 59.858189759 60.361224157 60.864257126 61.367263286 61.870269503 62.373278779 62.87628594 
63.379268428 63.882250917 
ParallelTransportNormals 3 128 double
0.55858494317 0 0.82944732278 0.52023851277 0.0048600397463 0.85271671929 0.48189208236 0.0097200794926 0.87598611581 
0.45537971333 0.01262481275 0.88977684703 0.42992454989 0.015354867096 0.9027207939 0.40322013836 0.017008799728 0.91446033498 
0.37649621218 0.018645922136 0.92618106189 0.34982208179 0.018403674802 0.93619856293 0.32315079472 0.018054116598 0.94611881081 
0.29323323057 0.014409038277 0.95539833753 0.26307967142 0.010524385135 0.96463128568 0.22983427774 0.00073979577395 0.97256031751 
0.19630356711 -0.0095892443698 0.98036902291 0.16465203068 -0.026754784792 0.98531103385 0.13321121991 -0.044686952377 0.98993158121 
0.1093070888 -0.065138799529 0.99138840459 0.08639190067 -0.085921272305 0.99243009255 0.069803816203 -0.10558213614 0.99164323483 
0.054169631977 -0.12507390158 0.99058069803 0.040289098122 -0.14493440516 0.98832571281 0.026711196959 -0.16485854299 0.98586494319 
0.010246004169 -0.18935651383 0.9813727016 -0.0067856005491 -0.21475175239 0.97648193776 -0.032028132273 -0.24910508268 0.96684831475 
-0.059085314723 -0.28543819036 0.95616649916 -0.099763604537 -0.33194819418 0.93547053342 -0.14380136707 -0.38096819986 0.91230470504 
-0.20101468261 -0.43388966801 0.87358854361 -0.26182227574 -0.48787545119 0.83063026699 -0.32507259078 -0.53574017191 0.7730963697 
-0.38905432251 -0.58177208179 0.71119813928 -0.44311713882 -0.61771352898 0.64341507673 -0.49394096877 -0.65035997166 0.57371034329 
-0.53003785402 -0.67516356924 0.50787759352 -0.56090397285 -0.69718151836 0.44342010811 -0.57950960143 -0.71491005381 0.38735397385 
-0.59339097202 -0.73098577635 0.33452122641 -0.59928367273 -0.74477838687 0.29073091492 -0.60184647483 -0.75761933316 0.25070974086 
-0.60009681565 -0.76883776712 0.21895187095 -0.59640742085 -0.7793263986 0.19091081708 -0.5913083248 -0.78803018213 0.17034488849 
-0.58552663182 -0.7958697175 0.15339851929 -0.58122805215 -0.8009123408 0.14373567482 -0.57770111582 -0.80449976946 0.13786234749 
-0.58062106007 -0.80201645888 0.13980647943 -0.58713942557 -0.79614467588 0.14611404129 -0.61035517674 -0.77527995133 0.15662339584 
-0.6435351348 -0.7454681512 0.16964018076 -0.6962116425 -0.69333044906 0.1641675845 -0.76124283769 -0.62704513889 0.14697852915 
-0.81710563693 -0.55895481418 0.098124988515 -0.86690886609 -0.48967152049 0.028343777646 -0.89420216288 -0.43801528531 -0.045772287788 
-0.90616029428 -0.39836769826 -0.12284152565 -0.90772865686 -0.37370553837 -0.18450058968 -0.90187523853 -0.35974800138 -0.23515161917 
-0.89604451755 -0.35249132624 -0.26915612071 -0.89023097459 -0.35030605997 -0.29056204147 -0.88799365222 -0.3492909612 -0.29909861353 
-0.88864274874 -0.34922032139 -0.29724814985 -0.89311493121 -0.3475020602 -0.28490062605 -0.90088407496 -0.34436291965 -0.26350062451 
-0.91101348158 -0.33847256097 -0.23257084012 -0.92331978559 -0.33004472242 -0.19285162829 -0.93505471721 -0.3196165012 -0.14417090606 
-0.94622570285 -0.30721389724 -0.086645150507 -0.95287589364 -0.29640178183 -0.023467297127 -0.95475577938 -0.28726793668 0.045674602774 
-0.95120747836 -0.28404725098 0.10956181173 -0.94154721914 -0.28748458664 0.16753241303 -0.93240374376 -0.29328736073 0.20998924906 
-0.92387783658 -0.30191688644 0.23390678993 -0.91941551044 -0.30630450305 0.24667919096 -0.92007133713 -0.30534935944 0.24541408947 
-0.92263649352 -0.30068158811 0.2412636219 -0.92775248856 -0.29105379637 0.23325834427 -0.93283712378 -0.2806198033 0.22567602901 
-0.93787705582 -0.26903657662 0.21869664325 -0.94220013994 -0.25862601327 0.21285269673 -0.94542897643 -0.25000548665 0.20874196544 
-0.94769106371 -0.24390148122 0.20588979379 -0.94836909355 -0.24192089697 0.20509982271 -0.9476387457 -0.24407521101 0.20577215894 
-0.94442619347 -0.25351710342 0.20902174821 -0.93859584141 -0.26950088425 0.21408568635 -0.92779637125 -0.29790250379 0.22259362876 
-0.91109022215 -0.336202014 0.23323257015 -0.88227774042 -0.39478824673 0.24823920834 -0.84063335007 -0.46450322692 0.26465707075 
-0.7705699922 -0.55886516514 0.28420038678 -0.68468783605 -0.65372295219 0.30217210959 -0.56098909283 -0.74976612073 0.31638676493 
-0.43732931143 -0.83235645862 0.32768057104 -0.31376950827 -0.88042607104 0.33147931256 -0.20227351788 -0.91889290415 0.33435559537 
-0.12396427253 -0.93094313127 0.33469425573 -0.055527221878 -0.94019732707 0.33507295556 -0.016588623803 -0.94109688647 0.33557129463 
0.01669707071 -0.94163279882 0.33609100172 0.031493491579 -0.94097931005 0.33668059838 0.042877330486 -0.94048219364 0.33712674803 
0.041958411112 -0.94054881791 0.33705575437 0.039381868368 -0.94074464772 0.33677462568 0.03018037321 -0.94145686782 0.33565365924 
0.020109200731 -0.9422176681 0.33429605079 0.0061590183125 -0.94319514998 0.33188295116 -0.0080262137917 -0.94415759088 0.32927997085 
-0.023391166855 -0.94504454074 0.32572397405 -0.038866206029 -0.94590668954 0.32197996095 -0.054969116234 -0.94662738672 0.31716360561 
-0.071304846097 -0.94732523519 0.31208892222 -0.089168486589 -0.94787313595 0.30531892587 -0.1075095413 -0.94838545856 0.29812158681 
-0.12951339512 -0.94862481985 0.28764560547 -0.15222305836 -0.94877219766 0.27647941517 -0.1813952479 -0.94807735703 0.25899353938 
-0.21136939428 -0.947154763 0.24049425816 -0.25036613377 -0.94366977895 0.21059343469 -0.29027244812 -0.9396374642 0.1790856042 
-0.34327286906 -0.92772585672 0.12444353572 -0.3960903103 -0.91516144591 0.068822461498 -0.44547569786 -0.89035274754 -0.0051613067228 
-0.49476803626 -0.86490151715 -0.080069196679 -0.53903541346 -0.80475143882 -0.20488270822 -0.57980578413 -0.7493530587 -0.31983628017 
-0.57980578413 -0.7493530587 -0.31983628017 -0.57980578413 -0.7493530587 -0.31983628017 
FrenetTangent 3 128 double
-0.88057677842 0.073307748916 0.46819922176 -0.88057677842 0.073307748916 0.46819922176 -0.8849026645 0.065782672156 0.46110726995 
-0.89147431033 0.05323397256 0.449932993 -0.89971896161 0.035214627829 0.43504680221 -0.90890877679 0.01119266007 0.41684476708 
-0.91818329347 -0.0193763042 0.39568168826 -0.92655579981 -0.056955298417 0.37182044567 -0.93291361603 -0.10180810996 0.34540887912 
-0.93603430791 -0.15385733306 0.31649280478 -0.93464709439 -0.21253125803 0.28507064616 -0.9275702762 -0.27663145347 0.25117408637 
-0.91392917621 -0.34427612182 0.21495909568 -0.89341837249 -0.41298347809 0.17677176959 -0.86652186898 -0.47992584498 0.13715332257 
-0.83458346444 -0.54231666071 0.096763011528 -0.79966075654 -0.59781300758 0.056234174925 -0.76418878969 -0.64479373944 0.016016469195 
-0.73056721327 -0.6824278694 -0.023743419402 -0.70079613905 -0.71055267377 -0.063242938738 -0.6762396768 -0.72944760224 -0.10298589765 
-0.65752306101 -0.73960563383 -0.1436903986 -0.6445327643 -0.74156547414 -0.18616703066 -0.63647875648 -0.73583273997 -0.23118168471 
-0.63198455838 -0.72289209859 -0.2793251363 -0.62921009761 -0.70327943268 -0.3308968006 -0.62601775403 -0.67768032505 -0.38581232314 
-0.62016192135 -0.6470325635 -0.44356290769 -0.60950451613 -0.61258366362 -0.50323503443 -0.59222712329 -0.57587760918 -0.5635885145 
-0.5669921589 -0.5386688338 -0.62318197923 -0.53302180245 -0.50278057545 -0.68051410791 -0.49009517802 -0.46994136404 -0.73414019835 
-0.43848432842 -0.44163525832 -0.78274503661 -0.37884123311 -0.41901155853 -0.82517188144 -0.31208775656 -0.40285171553 -0.86041369555 
-0.23932155271 -0.39358260658 -0.88759108052 -0.16173196195 -0.39133812583 -0.90592342047 -0.08055984763 -0.39603528235 -0.9146945753 
0.0029577554098 -0.40745594443 -0.91322007481 0.087633965494 -0.42532192591 -0.90078940238 0.17232298976 -0.44934091771 -0.87658286937 
0.25590151421 -0.47922139895 -0.83956016212 0.33718457775 -0.51462121611 -0.78833467795 0.41476287455 -0.5550262883 -0.7210531029 
0.48673853186 -0.59952255646 -0.63534109414 0.55035828669 -0.64642541729 -0.52843158133 0.60161523534 -0.69276975396 -0.3976545946 
0.63499588477 -0.73377036495 -0.24158078948 0.64386273315 -0.76262740814 -0.061969486118 0.62208931889 -0.77140186811 0.13395535523 
0.56703309531 -0.7535305999 0.33266364973 0.48232219754 -0.70711212108 0.5170664812 0.37779370403 -0.63644504631 0.67246533013 
0.26599492042 -0.55016237085 0.79156052706 0.1579471964 -0.45756367882 0.87503609238 0.060967390134 -0.36595969956 0.92863150692 
-0.021211897576 -0.27999496204 0.95976709499 -0.087322673063 -0.2021842397 0.97544670997 -0.13747760842 -0.13374305779 0.98143400271 
-0.1724172472 -0.075260453813 0.98214467211 -0.19311035538 -0.027107004242 0.98080252904 -0.20057086675 0.010329040047 0.97962474364 
-0.19577191214 0.036531080508 0.97996879469 -0.17964233915 0.050826409676 0.98241809127 -0.15311317147 0.052422658045 0.98681721795 
-0.11720178452 0.040496023191 0.9922821241 -0.07312374528 0.014364102694 0.99721942943 -0.022445627651 -0.026252934014 0.99940331061 
0.032770154732 -0.080908403743 0.99618268764 0.089924574293 -0.14808973519 0.98487715034 0.14600346562 -0.2250483278 0.96334637498 
0.19791617515 -0.30793409074 0.93059431729 0.24300995215 -0.39230857768 0.88715282958 0.27955061631 -0.47389927108 0.83502750481 
0.30697958697 -0.54928683 0.77720493537 0.32586524918 -0.61628429367 0.71694177501 0.33761118897 -0.67392969504 0.65714340233 
0.34410858613 -0.72220721438 0.60000501703 0.34743475408 -0.76168512052 0.54692309225 0.34965637748 -0.79319647542 0.49857774626 
0.35273076786 -0.81760488184 0.45508599472 0.35846106474 -0.83564663455 0.41617348214 0.36847622504 -0.84783615143 0.381312381 
0.38420956521 -0.8544000671 0.34983358235 0.40685486438 -0.85523300149 0.32100721565 0.43729499999 -0.84986822236 0.29410387213 
0.47598733084 -0.83747896167 0.26844934277 0.52280304426 -0.81694393425 0.24347399287 0.57685597986 -0.78700221401 0.218780012 
0.63636289548 -0.74654342546 0.19420396276 0.69863459445 -0.69501662359 0.16988701063 0.76031022739 -0.63286932603 0.14630370566 
0.81786640875 -0.56184149164 0.12421222046 0.86829273308 -0.4849129967 0.10453284325 0.90968448926 -0.40583514564 0.088158746446 
0.94148173025 -0.32843420171 0.075783420027 0.96430172541 -0.25597529162 0.06781469204 0.97952169003 -0.19077374827 0.064363310458 
0.98880945738 -0.13413085681 0.065305208355 0.99376508112 -0.086480851951 0.070370631562 0.99571945307 -0.047619259286 0.079216014288 
0.99566295934 -0.016943076294 0.091477885619 0.99425911528 0.0063836783966 0.10680852184 0.9918958955 0.023303013803 0.12489796649 
0.98875047147 0.034752179063 0.14548124008 0.98484852631 0.041613490504 0.16834992614 0.98011344738 0.044664253595 0.19334615256 
0.97439958107 0.044541543631 0.22036675634 0.96751142673 0.041731700515 0.24935938786 0.95921265677 0.036541633705 0.28031373156 
0.94922399831 0.029099411802 0.31325233482 0.93721346725 0.019374421286 0.34821767416 0.92278447462 0.0071877071825 0.38524946497 
0.90546599844 -0.0077552385829 0.42434794916 0.88471153321 -0.025798317339 0.46542448349 0.85992479525 -0.047265623237 0.50822761374 
0.83052159825 -0.072355154438 0.55226678922 0.79606325568 -0.10100058825 0.59672621371 0.756463016 -0.13273246496 0.64042626286 
0.71224397002 -0.16659219759 0.68187650412 0.66478804968 -0.20110885039 0.71945262478 0.61644407652 -0.23441034302 0.75169707436 
0.57038221096 -0.2644849886 0.77763219084 0.53017169858 -0.289486974 0.796941191 0.49920694129 -0.30798065799 0.80990144097 
0.48017521729 -0.31902987218 0.81709956637 0.48017521729 -0.31902987218 0.81709956637 
FrenetNormal 3 128 double
-0.39534448565 -0.65841467981 -0.64046299431 -0.39534448565 -0.65841467981 -0.64046299431 -0.37857256835 -0.67831236093 -0.62974213096 
-0.35175584867 -0.70722004852 -0.61327614163 -0.31522351623 -0.74184246889 -0.59186475327 -0.26959086196 -0.77840419575 -0.56692828046 
-0.21581778932 -0.81310974749 -0.54062484253 -0.15504455725 -0.84277186682 -0.51545782152 -0.088433655909 -0.86505448532 -0.49382205898 
-0.017042710678 -0.87848580035 -0.47746439092 0.058095626313 -0.88221447771 -0.46724994758 0.13567909414 -0.87570014618 -0.4634009467 
0.21395770658 -0.85871903821 -0.46564333262 0.29053660059 -0.83132756984 -0.47379632263 0.36247995403 -0.79395801429 -0.48809727971 
0.42640140628 -0.74716527828 -0.50982927304 0.47858943731 -0.69112565023 -0.54156946562 0.5146742866 -0.62456599484 -0.58739058283 
0.52870052905 -0.54330591146 -0.65214602441 0.51191250667 -0.4391716723 -0.73829115379 0.45379393094 -0.30234640575 -0.8382468128 
0.35211138578 -0.13304223524 -0.92645417353 0.2289454242 0.045127010311 -0.97239269109 0.12330771044 0.19880069807 -0.97225176317 
0.060233273036 0.31352028953 -0.947669236 0.042589663904 0.3938983389 -0.91816677087 0.063300021768 0.4489587354 -0.89130755699 
0.11468405164 0.48457383761 -0.8671999563 0.19003255913 0.50337283443 -0.84291364684 0.28383365026 0.5055161799 -0.81479558837 
0.39065895421 0.4902022984 -0.77915806365 0.50489535107 0.45639039135 -0.73265851196 0.6199028604 0.40419431766 -0.67256776405 
0.72849606439 0.33539623428 -0.59732976672 0.82377526339 0.25365663123 -0.50700357875 0.90016315717 0.16423544385 -0.40340179655 
0.95435890791 0.072868944763 -0.28963630949 0.98546065814 -0.015619412671 -0.16918429363 0.99419139007 -0.097634055651 -0.045288752356 
0.98202960197 -0.17114606963 0.079541710491 0.95047705458 -0.23497869815 0.20341676463 0.90077845141 -0.28823949455 0.32483253416 
0.83392812206 -0.32984055671 0.44245801427 0.75096808995 -0.35797613401 0.5548873898 0.6528936768 -0.37042815469 0.66069117521 
0.54073355037 -0.36443745693 0.75815075512 0.41526400376 -0.33714394335 0.84491997766 0.27725340196 -0.28577205522 0.91731395038 
0.12783210263 -0.20860250923 0.96961020347 -0.029781349865 -0.10590810458 0.99392984893 -0.18911152663 0.017982706694 0.98179094147 
-0.33975084003 0.1539492007 0.9278302702 -0.46970974317 0.28947187856 0.83401366217 -0.56963026753 0.41280463559 0.71071350849 
-0.63573876542 0.51714051905 0.57306361401 -0.66960951556 0.60165127018 0.43547542499 -0.67550565388 0.66980432562 0.30830873643 
-0.65759309656 0.72700894166 0.19755839162 -0.61794125739 0.77902516079 0.10615272612 -0.5550361451 0.83106820615 0.03550372334 
-0.45989516975 0.88788241885 -0.012698155118 -0.30803198961 0.9507548925 -0.034371903701 -0.035829836266 0.99919809801 -0.017871311029 
0.46186162349 0.88496889812 0.059278074389 0.92475584029 0.34931024501 0.15102644993 0.97506603622 -0.15430525911 0.15948702776 
0.89844383546 -0.42141627776 0.12331664674 0.81794770011 -0.57123502727 0.068206330385 0.74527861196 -0.66675271856 -0.00077643219242 
0.67698191913 -0.73145354949 -0.081677329221 0.60924460964 -0.77409875131 -0.17202362873 0.53935552267 -0.79822006124 -0.26821699051 
0.46629128518 -0.80549919115 -0.36570957114 0.39053760099 -0.79760267894 -0.45968505388 0.31381021197 -0.776839558 -0.54593356005 
0.23894332973 -0.74599601341 -0.62160761992 0.16934041013 -0.70802238116 -0.68558597804 0.10897261511 -0.66545590832 -0.73843984402 
0.062889498759 -0.61986726935 -0.78218251025 0.037331124281 -0.57155983138 -0.81971076991 0.041136666798 -0.51865782851 -0.85399170463 
0.086116386354 -0.45591735938 -0.88584610933 0.18572729663 -0.37305100008 -0.90903153005 0.34360297715 -0.25691925155 -0.90328815573 
0.53098665176 -0.10548463859 -0.84078901436 0.68829258548 0.0559611416 -0.72327150325 0.78139909384 0.19717687178 -0.59206143041 
0.81904819684 0.31096385788 -0.48214264523 0.8210734085 0.4058006502 -0.40145272468 0.80024953494 0.49077257936 -0.34459099984 
0.76259778649 0.57094392939 -0.30408493144 0.71101038711 0.64792059181 -0.27324556011 0.64755460022 0.72080088502 -0.24722282236 
0.57477256724 0.78755777101 -0.22223693048 0.49601237473 0.8460583029 -0.19533835316 0.41511875278 0.89483591924 -0.16414962298 
0.33579446434 0.93341736873 -0.12638866036 0.26096203933 0.96208982615 -0.079258945541 0.192359924 0.98113340675 -0.019362277861 
0.13039728442 0.98973808209 0.058438660722 0.074276350477 0.98421796303 0.16061763607 0.022311599728 0.955555651 0.29396528768 
-0.027153921166 0.8875378984 0.45993384683 -0.073978264145 0.76220582545 0.64309369153 -0.11515464517 0.58024903589 0.80625707069 
-0.14781234302 0.37587584989 0.91480536549 -0.17324284654 0.19262083588 0.96585927014 -0.19548045756 0.049723422911 0.9794462578 
-0.21788308976 -0.054572474239 0.97444794846 -0.2421916589 -0.13007513161 0.96146953176 -0.26895924392 -0.18726802985 0.94477066535 
-0.29826480785 -0.23344810385 0.92549450955 -0.33002192483 -0.2735736296 0.90346167507 -0.36408822158 -0.31101700146 0.87789987567 
-0.40043272723 -0.34697042338 0.84809501606 -0.43910049726 -0.38123668795 0.81354123502 -0.48004710702 -0.41324478272 0.77381103934 
-0.52319609019 -0.44144178901 0.72896844797 -0.56809354247 -0.46469301429 0.67921287493 -0.61391080138 -0.48179753548 0.625287664 
-0.65912724247 -0.49277261546 0.56809015806 -0.70202022099 -0.49743678225 0.50963149136 -0.74059043873 -0.49685346041 0.45239633171 
-0.77320067461 -0.49236612154 0.39967026303 -0.79868494081 -0.48603920249 0.3547791693 -0.81657997019 -0.47984388042 0.32085355337 
-0.82687567034 -0.47552404936 0.30025573148 -0.82687567034 -0.47552404936 0.30025573148 
FrenetBinormal 3 128 double
0.2613183403 -0.74907682074 0.6087664919 0.2613183403 -0.74907682074 0.6087664919 0.27134864078 -0.7318230531 0.62514393071 
0.28555450785 -0.7049864872 0.64919386621 0.30189389682 -0.66964892394 0.6785502146 0.31812828015 -0.62766362998 0.71051584428 
0.33220794903 -0.58178784568 0.74240203476 0.34271786516 -0.53524917047 0.77204455209 0.34907259063 -0.49123909268 0.7980178446 
0.35149583273 -0.45231694602 0.81967070213 0.35079867039 -0.42015244813 0.83690633477 0.34814446157 -0.39575787161 0.84980653148 
0.3448993486 -0.37957287227 0.85846891264 0.34262529885 -0.37193967044 0.86271014028 0.34314447904 -0.373231637 0.86194548067 
0.34878687133 -0.38423519678 0.85481637323 0.36262215176 -0.40615876646 0.83877305124 0.38874911243 -0.44063403371 0.80914508953 
0.43214268186 -0.4889896621 0.75772146128 0.49682024618 -0.54976644137 0.67151061268 0.58031971169 -0.61359012909 0.53547753054 
0.66609383441 -0.65976000944 0.34790190242 0.72949400853 -0.66936103897 0.14069218535 0.76137375914 -0.64732407744 -0.035798570661 