# vtk DataFile Version 4.2
vtk output
ASCII
DATASET POLYDATA
POINTS 128 float
0 0 0 -0.321169 0.096579 -0.0373179 -0.956058 0.267684 -0.0750658 
-1.49595 0.365717 -0.0234264 -1.9467 0.392513 0.101609 -2.41429 0.385676 0.259641 
-2.88865 0.339591 0.444784 -3.336 0.240846 0.657761 -3.75739 0.0938382 0.886882 
-4.16253 -0.0926943 1.11828 -4.55231 -0.314957 1.34572 -4.92555 -0.570307 1.56535 
-5.28474 -0.854011 1.77313 -5.63347 -1.16081 1.96515 -5.97481 -1.48637 2.13865 
-6.31171 -1.82675 2.29113 -6.64707 -2.17841 2.41941 -6.98352 -2.53818 2.5199 
-7.32147 -2.90406 2.58776 -7.6599 -3.27481 2.6175 -7.99352 -3.6509 2.60233 
-8.3142 -4.03352 2.53503 -8.60618 -4.42383 2.40914 -8.8506 -4.82239 2.22015 
-9.03042 -5.22525 1.97575 -9.13165 -5.6266 1.68953 -9.15796 -6.02212 1.3778 
-9.12165 -6.40872 1.05728 -9.03635 -6.78748 0.737767 -8.91603 -7.16135 0.424744 
-8.7718 -7.53137 0.116749 -8.61251 -7.89822 -0.189662 -8.43981 -8.26881 -0.481607 
-8.25277 -8.65162 -0.742138 -8.06556 -9.03555 -1.00703 -7.89716 -9.40333 -1.32776 
-7.7232 -9.79388 -1.595 -7.49968 -10.266 -1.61447 -7.27941 -10.6596 -1.35494 
-7.17491 -10.688 -0.920553 -7.15375 -10.4538 -0.420897 -7.12881 -10.2049 0.0470558 
-7.08649 -9.98382 0.48053 -7.04317 -9.74976 0.914009 -6.99994 -9.50523 1.35503 
-6.95157 -9.27108 1.79952 -6.89846 -9.05565 2.24932 -6.84366 -8.86253 2.70925 
-6.78944 -8.7071 3.18466 -6.73779 -8.61167 3.67944 -6.69221 -8.60682 4.18163 
-6.65647 -8.72385 4.67025 -6.62896 -8.95835 5.11927 -6.60505 -9.28533 5.50245 
-6.57976 -9.67652 5.81974 -6.54819 -10.1031 6.086 -6.50837 -10.5498 6.31276 
-6.46016 -11.0098 6.50924 -6.4043 -11.4783 6.68234 -6.34213 -11.9523 6.83739 
-6.27559 -12.4299 6.97854 -6.20705 -12.9102 7.10908 -6.13898 -13.3926 7.23177 
-6.07393 -13.8768 7.34897 -6.01408 -14.3625 7.46275 -5.96136 -14.8494 7.57501 
-5.9166 -15.337 7.68766 -5.87973 -15.8247 7.80268 -5.84935 -16.3117 7.92237 
-5.82294 -16.7971 8.04928 -5.79647 -17.2797 8.1865 -5.76458 -17.758 8.33756 
-5.72039 -18.2292 8.50657 -5.65566 -18.6897 8.69813 -5.56143 -19.133 8.91621 
-5.42827 -19.5503 9.16406 -5.2506 -19.9316 9.44112 -5.02691 -20.2665 9.74303 
-4.76009 -20.549 10.0635 -4.45749 -20.7779 10.3943 -4.12668 -20.9555 10.7292 
-3.77511 -21.0878 11.0638 -3.40894 -21.1812 11.3954 -3.03271 -21.2424 11.7231 
-2.64997 -21.2774 12.0468 -2.26316 -21.2916 12.3673 -1.87411 -21.2894 12.6853 
-1.48387 -21.2742 13.0014 -1.09318 -21.2488 13.3163 -0.702335 -21.2155 13.6303 
-0.311499 -21.1755 13.9434 0.0793571 -21.1296 14.2558 0.470276 -21.0777 14.5671 
0.861299 -21.0191 14.8771 1.25241 -20.9527 15.1854 1.64349 -20.8769 15.4916 
2.03434 -20.79 15.7951 2.42467 -20.6905 16.0955 2.81415 -20.5773 16.3921 
3.20241 -20.45 16.6845 3.58929 -20.3089 16.9724 3.97496 -20.1556 17.2556 
4.35986 -19.9925 17.5343 4.74492 -19.8229 17.809 5.1312 -19.6507 18.0801 
5.52003 -19.4802 18.3488 5.91274 -19.3165 18.616 6.31053 -19.1654 18.8833 
6.71426 -19.0335 19.152 7.12392 -18.9286 19.4237 7.53839 -18.8591 19.6999 
7.95425 -18.8343 19.9817 8.36644 -18.8624 20.2693 8.76671 -18.9484 20.5618 
9.14671 -19.0944 20.8578 9.4992 -19.2959 21.1555 9.81785 -19.5466 21.4535 
10.0983 -19.8384 21.7526 10.3381 -20.1627 22.0533 10.5389 -20.5113 22.3548 
10.6999 -20.8766 22.6589 10.8092 -21.253 22.9771 10.8607 -21.6327 23.3141 
10.874 -21.9989 23.646 10.8515 -22.3416 23.9689 10.7105 -22.6834 24.3752 
10.4324 -23.0101 24.8741 10.2709 -23.1612 25.1305 
LINES 1 129
128 0 1 2 3 4 5 6 7 8 9 10 11 12 13 14 15 16 17 18 19 20 21 22 23 24 25 26 27 28 29 30 31 32 33 34 35 36 37 38 39 40 41 42 43 44 45 46 47 48 49 50 51 52 53 54 55 56 57 58 59 60 61 62 63 64 65 66 67 68 69 70 71 72 73 74 75 76 77 78 79 80 81 82 83 84 85 86 87 88 89 90 91 92 93 94 95 96 97 98 99 100 101 102 103 104 105 106 107 108 109 110 111 112 113 114 115 116 117 118 119 120 121 122 123 124 125 126 127 

CELL_DATA 1
FIELD FieldData 2
Length 1 1 double
57.424201668 
Tortuosity 1 1 double
0.6091621901 
POINT_DATA 128
SCALARS MaximumInscribedSphereRadius float
LOOKUP_TABLE default
1.55 1.46065 1.37131 1.30546 1.24136 1.24 1.24 1.24 1.24 
1.24 1.24 1.24 1.24 1.24 1.24 1.24061 1.24132 1.25008 
1.26028 1.26493 1.26844 1.21363 1.14517 1.14407 1.16068 1.28912 1.44988 
1.42338 1.33726 1.20613 1.05912 1.03036 1.04747 1.09985 1.16754 1.20499 
1.22955 1.25129 1.27094 1.36072 1.46746 1.51268 1.54364 1.55722 1.56632 
1.61049 1.665 1.71486 1.76319 1.72896 1.66486 1.61429 1.56909 1.56465 
1.57722 1.63975 1.725 1.76592 1.78486 1.74015 1.66105 1.60637 1.56605 
1.55024 1.55007 1.52273 1.47659 1.41231 1.33445 1.31221 1.33512 1.38087 
1.44668 1.4636 1.4341 1.41447 1.40495 1.46005 1.58609 1.71999 1.86315 
1.99888 2.12516 2.14941 2.03336 1.9067 1.76422 1.7095 1.79649 1.89051 
1.99684 2.05625 2.02595 1.99803 1.97505 1.98 2.04873 2.13175 2.25061 
2.37554 2.51725 2.61995 2.6033 2.55508 2.39924 2.25248 2.14045 2.03639 
1.96675 1.91777 1.9707 2.03161 2.13787 2.25506 2.44451 2.61672 2.65405 
2.67143 2.4984 2.3364 2.30982 2.28971 2.36983 2.44695 2.39605 2.34273 
2.25637 2.17 
TEXTURE_COORDINATES TCoords 2 float
0 0 0.00787402 0 0.015748 0 0.023622 0 0.0314961 
0 0.0393701 0 0.0472441 0 0.0551181 0 0.0629921 0 
0.0708661 0 0.0787402 0 0.0866142 0 0.0944882 0 0.102362 
0 0.110236 0 0.11811 0 0.125984 0 0.133858 0 
0.141732 0 0.149606 0 0.15748 0 0.165354 0 0.173228 
0 0.181102 0 0.188976 0 0.19685 0 0.204724 0 
0.212598 0 0.220472 0 0.228346 0 0.23622 0 0.244094 
0 0.251969 0 0.259843 0 0.267717 0 0.275591 0 
0.283465 0 0.291339 0 0.299213 0 0.307087 0 0.314961 
0 0.322835 0 0.330709 0 0.338583 0 0.346457 0 
0.354331 0 0.362205 0 0.370079 0 0.377953 0 0.385827 
0 0.393701 0 0.401575 0 0.409449 0 0.417323 0 
0.425197 0 0.433071 0 0.440945 0 0.448819 0 0.456693 
0 0.464567 0 0.472441 0 0.480315 0 0.488189 0 
0.496063 0 0.503937 0 0.511811 0 0.519685 0 0.527559 
0 0.535433 0 0.543307 0 0.551181 0 0.559055 0 
0.566929 0 0.574803 0 0.582677 0 0.590551 0 0.598425 
0 0.606299 0 0.614173 0 0.622047 0 0.629921 0 
0.637795 0 0.645669 0 0.653543 0 0.661417 0 0.669291 
0 0.677165 0 0.685039 0 0.692913 0 0.700787 0 
0.708661 0 0.716535 0 0.724409 0 0.732283 0 0.740157 
0 0.748031 0 0.755906 0 0.76378 0 0.771654 0 
0.779528 0 0.787402 0 0.795276 0 0.80315 0 0.811024 
0 0.818898 0 0.826772 0 0.834646 0 0.84252 0 
0.850394 0 0.858268 0 0.866142 0 0.874016 0 0.88189 
0 0.889764 0 0.897638 0 0.905512 0 0.913386 0 
0.92126 0 0.929134 0 0.937008 0 0.944882 0 0.952756 
0 0.96063 0 0.968504 0 0.976378 0 0.984252 0 
0.992126 0 1 0 
FIELD FieldData 7
Curvature 1 128 double
0 0.040500817249 0.074532694412 0.10427242721 0.12796791545 0.14434244153 0.15299302847 0.15459652046 0.15078670194 
0.14377911989 0.13594809239 0.1294787303 0.12609107014 0.1268418103 0.13200855482 0.14126736739 0.15394362531 0.16926474224 
0.18633598803 0.20398880157 0.22059742667 0.23404267018 0.24196734735 0.24239976533 0.23454459196 0.21926756451 0.19893255283 
0.17692647158 0.15715683859 0.14407872579 0.14300110522 0.16043303798 0.20490522277 0.29150691402 0.4513144653 0.73945644653 
1.1967996848 1.6420456312 1.6034822305 1.1163364894 0.6517169816 0.35990096529 0.19135908284 0.092791839722 0.052364255469 
0.079979378726 0.12731638039 0.17769406055 0.22795012386 0.27384925243 0.30894095027 0.32663931151 0.32363928968 0.30212556895 
0.26836487214 0.22955032211 0.19106622961 0.15593746808 0.12520623082 0.098862237317 0.076363898971 0.057049375394 0.040188113834 
0.025127232921 0.011203842932 0.0034409590719 0.016929300369 0.03198117054 0.048580541325 0.066998279156 0.087246227061 0.10901649023 
0.13163267949 0.15398676504 0.17448666522 0.1913214423 0.20267749754 0.20729302855 0.20477819308 0.19584670073 0.18193182825 
0.16485622248 0.14639592742 0.12797987097 0.11059671718 0.094942621397 0.081315029893 0.06990261842 0.060722235342 0.053625167349 
0.048476719689 0.044992703889 0.042823570553 0.04157554148 0.040790619827 0.04000441775 0.038724209457 0.036530787346 0.03294481288 
0.027786840307 0.020920149696 0.01293445874 0.0090378371807 0.018165069122 0.03289524406 0.050075268571 0.06907589827 0.089347506761 
0.11044005073 0.13162319929 0.15193288737 0.17042154834 0.18603996868 0.19800394684 0.20597387154 0.21016077725 0.21120675294 
0.20986716148 0.20656916011 0.20121785159 0.19283485684 0.18011006117 0.16178433097 0.13732107099 0.10709434707 0.072311587156 
0.034602890267 0 
Torsion 1 128 double
0 0 -0.046969879397 -0.065975960539 -0.087422610116 -0.11173150252 -0.13963823975 -0.17193083175 -0.20894368346 
-0.24955658881 -0.28941924687 -0.3192418762 -0.32623646836 -0.30140726802 -0.24747464746 -0.17720497884 -0.10478211126 -0.039513570035 
0.014344550392 0.055908717137 0.08644194035 0.10826023912 0.12439085341 0.13856425302 0.15520319241 0.17968279271 0.21905027919 
0.28222984539 0.37616618596 0.49020986711 0.57164469272 0.5518256693 0.43921850453 0.30207921745 0.18499172497 0.099239618375 
0.045772041494 0.021288707463 0.016514417409 0.029602151319 0.072487728777 0.17230691351 0.42500873861 1.296709371 3.0657429852 
1.0391051848 0.33922175369 0.15094455757 0.083979422531 0.05664736865 0.045235335123 0.040997228319 0.040013785058 0.040022814328 
0.039476080495 0.03707094569 0.031765852951 0.022617100027 0.0093065042561 -0.0080954425382 -0.028471855463 -0.047881103272 -0.05799988527 
-0.02776581644 0.32815989824 4.8155061504 0.052540937322 -0.088072788953 -0.10772899751 -0.10407219619 -0.093567802028 -0.081469404321 
-0.069742176502 -0.059258887069 -0.05010999727 -0.042131478551 -0.035129979499 -0.02906484321 -0.023526425087 -0.018243085547 -0.013304084833 
-0.0083494802037 -0.003359546273 0.0015529499631 0.0064478096248 0.011223677573 0.015539698947 0.018743373333 0.020283512423 0.019481812021 
0.015785386722 0.0093745454257 0.00074455503701 -0.0083816598081 -0.018076352798 -0.029254803799 -0.043160437357 -0.063473474474 -0.099399177839 
-0.17150147897 -0.36445015794 -1.1373829427 -2.766147492 -0.82623637191 -0.31145048602 -0.17310678487 -0.12138913717 -0.099612129809 
-0.091529408856 -0.091125438465 -0.095680165759 -0.1046189667 -0.11731305055 -0.13345586053 -0.15224583757 -0.17155166621 -0.18890853821 
-0.2003480679 -0.2021749838 -0.19351403833 -0.17548248694 -0.15078280454 -0.12321236401 -0.095790554509 -0.070196173926 -0.046809746796 
0 0 
Abscissas 1 128 double
0 0.50241135423 1.0048227085 1.5072320341 2.0096412094 2.5120533822 3.0144656197 3.5168760206 4.019286304 
4.5216976356 5.0241090513 5.5265202464 6.0289314186 6.5313439902 7.0337567403 7.5361692208 8.0385816603 8.5409927598 
9.0434036199 9.5458120025 10.048219875 10.550631953 11.053045016 11.555456728 12.057868084 12.560278755 13.062689229 
13.565100718 14.06751253 14.569924903 15.072337473 15.574747068 16.077155508 16.579566602 17.081978849 17.584390679 
18.086802331 18.589202422 19.09159395 19.593994713 20.096397708 20.598814148 21.101233708 21.60364651 22.106057563 
22.608467056 23.110876089 23.613286897 24.115698285 24.618111281 25.120524858 25.622934336 26.125342183 26.627751677 
27.130161857 27.632588967 28.135023776 28.637430332 29.139822883 29.642229408 30.144643484 30.647054939 31.149464853 
31.651873729 32.154281944 32.656700683 33.159126711 33.661545964 34.163960137 34.666349153 35.168717755 35.671112733 
36.173530876 36.67595361 37.178380701 37.680795549 38.183197871 38.685606903 39.188023302 39.690434411 40.192839284 
40.695241174 41.197639273 41.700051544 42.202483303 42.70490661 43.207317337 43.709727101 44.212135309 44.714537859 
45.216930478 45.719333392 46.221755988 46.724173808 47.226581667 47.728987643 48.231389321 48.733800196 49.236234137 
49.738657552 50.241051895 50.743448475 51.2458519 51.748261625 52.250692819 52.753118661 53.255524054 53.757927687 
54.260323716 54.762723 55.265138333 55.767555052 56.269979641 56.772401024 57.274801233 57.777202035 58.279607478 
58.782014553 59.284437229 59.786859616 60.289278447 60.791695581 61.294086416 61.796477859 62.298895235 62.80131013 
63.303691137 63.806072144 
ParallelTransportNormals 3 128 double
-0.074725649141 0 0.99720413024 0.04755737333 -0.024263854193 0.9901929189 0.1698403958 -0.048527708386 0.98318170757 
0.25860458253 -0.052767884094 0.96058261448 0.34488273675 -0.055522939138 0.9368273959 0.40324706765 -0.045929721487 0.91162419552 
0.46100794852 -0.036069554903 0.8863896922 0.48458849969 -0.027386283578 0.87392791823 0.50598395896 -0.018778249219 0.8622826837 
0.5095050973 -0.016920727377 0.86029680673 0.51159194738 -0.015604886578 0.85908602512 0.50154696247 -0.024016371287 0.86464784212 
0.49024202554 -0.033438087624 0.87091302751 0.46941141641 -0.053650388911 0.88074521257 0.4473659612 -0.075238855531 0.89103231098 
0.41498726992 -0.10921873009 0.90183198701 0.38103204884 -0.14508914736 0.91270986641 0.33620629639 -0.19408425151 0.91895420759 
0.28943755142 -0.24542525464 0.92437035281 0.23635224457 -0.30832469848 0.91753195378 0.18196599878 -0.37360468191 0.90816964787 
0.1367644549 -0.44130268508 0.88280272782 0.093713424406 -0.50956684531 0.85368847472 0.074171144557 -0.55833085668 0.82457591258 
0.060813300977 -0.60196497282 0.79546379527 0.058116658078 -0.62073052061 0.78173130025 0.058502090738 -0.63230674621 0.77244494215 
0.057744253787 -0.63206967463 0.77273951116 0.056622503733 -0.62807232326 0.77608377629 0.053328676367 -0.61981652015 0.78282707424 
0.049269608044 -0.61006042897 0.79076787981 0.04070578066 -0.59162635651 0.80469103399 0.030394557718 -0.56982609603 0.82093474057 
0.023543194738 -0.5552643039 0.83122180089 0.01819495709 -0.54384724168 0.83892101489 -0.11280394174 -0.28025459114 0.85819248571 
-0.29733658045 0.090778022083 0.88239434193 -0.50425376855 0.37118634314 0.56529235865 -0.72775094266 0.58447026209 -0.0046095706284 
-0.77569774859 0.60617795823 -0.16372019828 -0.78122996737 0.581599073 -0.22357986082 -0.78239930339 0.57621919641 -0.23626038922 
-0.78255618785 0.57529464602 -0.23799251728 -0.7810519417 0.5825493248 -0.22402640396 -0.77911786999 0.5919204185 -0.20599829509 
-0.77543402516 0.60580210599 -0.17374598373 -0.77123406335 0.6210142483 -0.13729806985 -0.76369535258 0.63683608525 -0.065797560098 
-0.75506560718 0.6528571579 0.017157418484 -0.74455144912 0.63716741908 0.142301185 -0.73335591094 0.61001144636 0.28269989102 
-0.72457159644 0.54236272204 0.40317861107 -0.71674649688 0.45860547456 0.51573291149 -0.71037877012 0.38158830208 0.5849775102 
-0.70461941378 0.3073847283 0.63614276705 -0.69932455415 0.24997625223 0.66760940021 -0.69424089693 0.20020435373 0.69011924906 
-0.68993193031 0.163122445 0.70456805477 -0.68600698405 0.1323310665 0.71502093639 -0.68325679574 0.11167686526 0.72143169561 
-0.68114144381 0.096500770435 0.72565810152 -0.68020201428 0.089701970728 0.72751320355 -0.67995382766 0.087827599701 0.72797438108 
-0.68041349455 0.092223074193 0.72695783712 -0.68132511917 0.10062178539 0.72499778204 -0.68235527171 0.1124357393 0.72219740925 
-0.68346750364 0.1266147138 0.71881512503 -0.68446104032 0.14132037941 0.71507973797 -0.68536556709 0.15642101227 0.71107955803 
-0.68625224496 0.16956883509 0.70723698388 -0.68712443805 0.18113190946 0.70352231031 -0.68791708308 0.18904523 0.70072167652 
-0.68863986478 0.19375314291 0.69872380101 -0.68840911359 0.19429739934 0.69880482955 -0.68727346423 0.19089036562 0.70085872811 
-0.68404964254 0.18524377875 0.70544522215 -0.67868940417 0.17730589694 0.7126228238 -0.67171777996 0.16997170174 0.72093611298 
-0.66297729351 0.1633001898 0.73049607736 -0.65437815927 0.15820462482 0.73936173534 -0.64594569975 0.15496732947 0.74740870556 
-0.63882789396 0.15275361139 0.75400816811 -0.63338167502 0.1518413754 0.75876711955 -0.62937266622 0.1512796546 0.76223343384 
-0.62733967009 0.15119985529 0.76392250811 -0.6261595973 0.15115076004 0.76490365262 -0.62624911952 0.15114736846 0.76483102826 
-0.62653016276 0.15112592595 0.764604832 -0.62712047604 0.15107533463 0.76413064632 -0.62758693064 0.15103225096 0.76375640229 
-0.6278360129 0.15100234321 0.76355755614 -0.62793288401 0.15099304604 0.76347976884 -0.62773876964 0.15102315055 0.76363341245 
-0.62750733926 0.15106372348 0.76381555619 -0.62719806045 0.15112613552 0.76405715671 -0.6268774441 0.15119740685 0.76430616263 
-0.62653093964 0.15128890742 0.76457207799 -0.62605788544 0.15142995535 0.76493135309 -0.62526750544 0.15169524423 0.76552472949 
-0.62411881535 0.15211741732 0.76637613645 -0.62198035206 0.15297295748 0.76794031072 -0.61930851723 0.15407963238 0.76987188753 
-0.61500465966 0.15595473525 0.77292765123 -0.6101477056 0.15805313723 0.77634297652 -0.60340549987 0.16091266323 0.78098388201 
-0.59628289047 0.16380792886 0.78585629679 -0.5877068133 0.16683975051 0.79161327527 -0.57917613969 0.16964000584 0.79733404714 
-0.57084161774 0.17143985249 0.80289839983 -0.56326076636 0.17294031003 0.80797405811 -0.5593955869 0.17296474903 0.81064040357 
-0.55689308561 0.17320318184 0.81231652345 -0.5621274054 0.17465659843 0.80837048068 -0.56854773824 0.17712696566 0.80328621793 
-0.58280353997 0.18631588044 0.79068223407 -0.59760708737 0.19693027 0.77704669504 -0.61670128743 0.21871082216 0.75533068134 
-0.63575641043 0.24187078248 0.73268442456 -0.65443830325 0.27820565068 0.70115329445 -0.67281811125 0.31655975554 0.66787254737 
-0.68749069585 0.37969418884 0.61312027875 -0.70101360282 0.44349485661 0.55732510651 -0.69671251384 0.51762447227 0.48536130622 
-0.69132612094 0.59239892674 0.41207723747 -0.63957797241 0.69471945274 0.28239425389 -0.59136193731 0.7900560051 0.1615628915 
-0.59136193731 0.7900560051 0.1615628915 -0.59136193731 0.7900560051 0.1615628915 
FrenetTangent 3 128 double
-0.98087673404 0.042603820325 0.18990983942 -0.98087673404 0.042603820325 0.18990983942 -0.97850632098 0.020116879232 0.20523325992 
-0.97355523489 -0.015204789518 0.22794521051 -0.96488242522 -0.061715515948 0.25532939626 -0.9516050996 -0.11711230165 0.28413455127 
-0.93347067146 -0.17859760955 0.31102314928 -0.91100780404 -0.24320754025 0.33303884659 -0.88540662163 -0.30820166236 0.34794661902 
-0.85820452898 -0.37137492233 0.3543524425 -0.83092055042 -0.43120803066 0.35161153732 -0.80475578682 -0.48685924521 0.33961183568 
-0.78040776213 -0.53805143002 0.31853474451 -0.75798479578 -0.58492021744 0.28866483783 -0.73699027354 -0.62785787208 0.25027950209 
-0.71634972105 -0.66736879484 0.20362212264 -0.69447063005 -0.70393408177 0.14895419604 -0.66934456118 -0.73787938647 0.086671041522 
-0.63870605667 -0.7692524451 0.017471373067 -0.60028176994 -0.79772360464 -0.057435592504 -0.55214830489 -0.82255625258 -0.1361376537 
-0.49317735201 -0.84270736385 -0.2159175731 -0.42348572566 -0.85709082364 -0.29335159825 -0.34471331502 -0.86497382274 -0.36468207583 
-0.2599137225 -0.86637817347 -0.42641964939 -0.17298477405 -0.86228727135 -0.47595895791 -0.087825649389 -0.85453249711 -0.5119188087 
-0.0075441470853 -0.84541545117 -0.53405599029 0.066028279769 -0.83725247182 -0.54281540573 0.13244642587 -0.83201389425 -0.53871219037 
0.19249530012 -0.83112565016 -0.52170462245 0.24795075035 -0.83537836226 -0.4905745787 0.30136509882 -0.84478812901 -0.44216749575 
0.35582611759 -0.85809560494 -0.37021575712 0.41438875618 -0.87112763021 -0.26347411759 0.47786046568 -0.87227620665 -0.10384408819 
0.53764413403 -0.83323142721 0.12908978989 0.56400276645 -0.70708439845 0.42653550017 0.52223616724 -0.48160787644 0.70379204243 
0.43002741639 -0.23553640943 0.87154978113 0.33608295466 -0.044658307326 0.94077302426 0.26272708543 0.080154351823 0.96153510517 
0.21043819524 0.153720516 0.96544589126 0.17424733105 0.18974666647 0.96624741665 0.14951523589 0.19648968579 0.96903921366 
0.13282628837 0.17812478547 0.97500191688 0.12176634474 0.13641972942 0.98313916345 0.11460548525 0.072111004177 0.9907903844 
0.11007806015 -0.013805830412 0.99382705725 0.10724369212 -0.11875797973 0.98711465026 0.10542736009 -0.23751152006 0.96564659663 
0.10420676993 -0.36204520885 0.9263175567 0.10340391367 -0.48295739567 0.86951698351 0.10302898224 -0.59197469201 0.79934410165 
0.10315987426 -0.68402714349 0.7221252712 0.10381940109 -0.75772267762 0.64426537682 0.10490815623 -0.81440523031 0.57073496441 
0.10620804035 -0.85678252679 0.50462218933 0.10742960193 -0.88785478419 0.44740670851 0.10828751997 -0.91032685118 0.39947319941 
0.10856858106 -0.92639082449 0.36057302104 0.1081980189 -0.93770449386 0.33015673686 0.10730041604 -0.94545015143 0.30758841311 
0.10622483079 -0.95041940227 0.29226570978 0.10556153077 -0.95309091939 0.28368021186 0.10613328864 -0.95368893815 0.28144827996 
0.10895035251 -0.95222535283 0.28530106576 0.11514814258 -0.94851642467 0.29505507519 0.12590230936 -0.94217873996 0.31056051015 
0.1423311116 -0.93260827564 0.33163784295 0.16538646928 -0.91896007498 0.35799398929 0.19572475051 -0.90015413241 0.38911998142 
0.23356557337 -0.87493284299 0.42419293156 0.27855064147 -0.84200068158 0.46200042463 0.3296250557 -0.80027104048 0.50091275131 
0.38500969498 -0.74918584751 0.53896948027 0.44232205122 -0.68902877169 0.57409977773 0.4988707015 -0.62111023707 0.60444197123 
0.55208296586 -0.54770002671 0.62867247398 0.59991801991 -0.47167949402 0.6462327942 0.64112567703 -0.39604215506 0.65734958559 
0.67528652583 -0.32343399031 0.66285636599 0.70266564211 -0.25583586709 0.66393448811 0.72397785267 -0.19446315783 0.66184601615 
0.74015392941 -0.1398349788 0.65773728759 0.75216463397 -0.091901373107 0.65253544044 0.76090803186 -0.05020933001 0.64691420623 
0.76715551731 -0.014049953993 0.64130726727 0.77154045357 0.017439955876 0.63594117373 0.77455699644 0.045167095907 0.63088936646 
0.77657936505 0.070019277583 0.62611643529 0.77788177327 0.092814195616 0.62151868187 0.77865911869 0.11423341062 0.61696086163 
0.77904976822 0.13478659077 0.61230224038 0.77915149352 0.15478086937 0.60742557785 0.77904521409 0.17430032931 0.60225239693 
0.77881748253 0.19319626156 0.59675667857 0.77857485827 0.21109990052 0.59098055981 0.77845796429 0.22742444452 0.58504813466 
0.77864892131 0.24141396263 0.57915900752 0.77935201845 0.25219797272 0.57359098136 0.78077655419 0.2588123877 0.56868631107 
0.78309793884 0.26025516645 0.56482286296 0.78639853113 0.25553667006 0.56238630895 0.79060939988 0.24369738896 0.561736913 
0.79544901895 0.22385687029 0.5631597996 0.80035669495 0.19526230045 0.56683489208 0.80445050579 0.15735689468 0.57279856095 
0.80651607182 0.10987488307 0.58091250284 0.80502613078 0.052954049544 0.59087121896 0.79823372493 -0.012686092253 0.60221423385 
0.78434780545 -0.085658765466 0.61437862592 0.76175159341 -0.16388488451 0.62679841621 0.7292497654 -0.2446688532 0.63900855388 
0.68625797023 -0.32493966325 0.65074128003 0.63288008243 -0.40157421362 0.66196748577 0.56987531079 -0.47173359778 0.67283693632 
0.49854162881 -0.5330961988 0.68356761712 0.42063777037 -0.58398864045 0.69427741859 0.33835438468 -0.62346499316 0.70484587867 
0.25436608857 -0.65132319241 0.71489579101 0.17187000265 -0.66818148941 0.72387443621 0.094471458638 -0.67555191786 0.73123508517 
0.025881380278 -0.67577418149 0.7366541996 -0.030504981215 -0.6717337662 0.74016430167 -0.071975681902 -0.6664004624 0.74211180082 
-0.096694212553 -0.66228871115 0.74298310367 -0.096694212553 -0.66228871115 0.74298310367 
FrenetNormal 3 128 double
0.075253771218 -0.81684269672 0.57193083387 0.075253771218 -0.81684269672 0.57193083387 0.099131912058 -0.82680654502 0.55368203973 
0.13573293516 -0.84107409383 0.52361334876 0.18204991515 -0.85782593493 0.48061678471 0.23413149603 -0.87515394395 0.42342415726 
0.28740376736 -0.89125705612 0.35079899434 0.33705804125 -0.90443169199 0.26152474329 0.37837223796 -0.91268616506 0.15439693535 
0.40692909319 -0.91300969977 0.028670564096 0.41895621555 -0.90074719992 -0.11458695947 0.41241714839 -0.87005896597 -0.27001757617 
0.38917290103 -0.81670762296 -0.42606702723 0.35689264727 -0.74234030904 -0.56706128761 0.32758350136 -0.65569226104 -0.68026223507 
0.31277132766 -0.56800245287 -0.76128004711 0.31931109475 -0.48703416885 -0.81291951824 0.34873429469 -0.41504609566 -0.84031013929 
0.39873895241 -0.35031965647 -0.84751600936 0.46473658505 -0.28946227591 -0.83679836122 0.54102629189 -0.22924872293 -0.80915732371 
0.62167763756 -0.16779375245 -0.76508964938 0.70108016911 -0.10499903692 -0.7053097183 0.77466602569 -0.042718367333 -0.63092605726 
0.83945314029 0.015524569799 -0.54321028431 0.89429632065 0.064970584361 -0.4427334571 0.93933795643 0.10000507407 -0.32809021437 
0.9742821634 0.11406473047 -0.19432833899 0.99448366187 0.099652171176 -0.032736692807 0.9852341511 0.051016353907 0.16343499971 
0.9236160395 -0.026135799331 0.38242689703 0.80507633319 -0.10398760652 0.58398516713 0.66361807507 -0.14715918084 0.73345431073 
0.5352003821 -0.13764504159 0.83343529655 0.42518192856 -0.070660234069 0.9023455319 0.31445782557 0.059481671157 0.94740604111 
0.17415095838 0.25953628865 0.94990123622 -0.013283720661 0.50869323638 0.86084536011 -0.21511877181 0.72418878093 0.65519044834 
-0.3695002094 0.83489591671 0.40794411814 -0.46636709535 0.85992796814 0.20742618444 -0.53837617586 0.83916556331 0.077150830321 
-0.6312654008 0.77543816087 0.014129841526 -0.82218033851 0.56804161408 0.03671805619 -0.93537294986 -0.28957448559 0.20303709505 
-0.39649921367 -0.8920243802 0.21698128648 -0.16099430256 -0.97467853922 0.15518562988 -0.073837064953 -0.99398481859 0.080884289275 
-0.036487998611 -0.99928564323 -0.0098401829033 -0.019490110893 -0.99290092579 -0.11733664022 -0.011544209246 -0.97128518117 -0.23763801901 
-0.0075057392109 -0.93164811527 -0.36328425948 -0.0044807994992 -0.87442051296 -0.48514811033 -0.00094214539971 -0.80367840407 -0.59506313547 
0.0037687749348 -0.72572461547 -0.68797498417 0.0094017345451 -0.64698919627 -0.76244120251 0.015029633944 -0.57253787129 -0.81974050531 
0.018987870269 -0.50565250949 -0.86252826066 0.019134691279 -0.44808129535 -0.89378801533 0.013242925848 -0.4004795562 -0.91620999229 
-0.00099829320378 -0.36281847553 -0.93185930119 -0.024521963003 -0.33452277749 -0.94206856686 -0.055340460113 -0.31457443754 -0.94761825474 
-0.083968033558 -0.30145282932 -0.9497765848 -0.049754362589 -0.28997898513 -0.95573881975 0.82920178578 0.24109942537 0.50427717135 
0.50018755423 0.30054338942 0.812087484 0.51584981462 0.3109375773 0.79825859956 0.55575557844 0.32630268747 0.76463212932 
0.5947356299 0.34840166236 0.72450383863 0.62693985856 0.37817320036 0.68112513115 0.65039337367 0.41612279466 0.63547641912 
0.66448906532 0.46211867873 0.58728239276 0.66879975788 0.51529282724 0.53589195371 0.66313949028 0.57390199727 0.48050235583 
0.64733018778 0.63546086578 0.42089561181 0.62171798817 0.69692697276 0.35743466232 0.58720033445 0.75518266055 0.29136732215 
0.54555857002 0.80747715957 0.22438022072 0.49879867751 0.85203776469 0.15884434791 0.44938487387 0.88808249005 0.096761180223 
0.39948497006 0.91587045117 0.039913348398 0.35082023594 0.93638433797 -0.010465832757 0.30458854878 0.95096507047 -0.053770351463 
0.26148163381 0.96100934412 -0.089935508577 0.22162153253 0.96782566935 -0.11915271744 0.18496286653 0.97242033847 -0.14208245262 
0.15120229456 0.97554971665 -0.1595011488 0.12035217514 0.97757224567 -0.17282319995 0.092099946843 0.97876215316 -0.18314542673 
0.066946301096 0.97900721612 -0.19251769675 0.044739842227 0.97834326583 -0.20209601855 0.026169681613 0.97651900733 -0.21383586248 
0.010911472406 0.97355490925 -0.22819241541 -0.00098845725684 0.96933698536 -0.24573325327 -0.0094676078544 0.96374050072 -0.26667323016 
-0.013491195321 0.95632412427 -0.29199684415 -0.011824180113 0.94649155446 -0.32251190072 -0.00034542026641 0.93221046635 -0.36191646428 
0.028982662624 0.90819853193 -0.41753494688 0.097466002506 0.8554854775 -0.50857150544 0.28506509715 0.66236665789 -0.69282631366 
0.62178057007 -0.30997387013 -0.71923926653 0.41852639757 -0.89002055643 -0.18082882423 0.28197885876 -0.95922703255 0.019272343865 
0.20279821542 -0.97402590896 0.10072940238 0.13879934418 -0.98013707388 0.1416547156 0.076947855881 -0.98375540772 0.16218608221 
0.011251229457 -0.98525328228 0.17073189391 -0.060823270163 -0.98339187156 0.17099987356 -0.14034802762 -0.97617778475 0.16546710761 
-0.22699897069 -0.9613580946 0.15576290077 -0.32004503503 -0.93637562213 0.14412449421 -0.41748570223 -0.89901223735 0.13222210684 
-0.5170857704 -0.84715217579 0.12229266984 -0.61559149419 -0.77953366565 0.11564763898 -0.70928908622 -0.69581728203 0.11290395117 
-0.79408766529 -0.59711744115 0.11347044245 -0.86590345433 -0.48677108461 0.11517429824 -0.92181878523 -0.3701345622 0.11511095975 
-0.96098941316 -0.25324546804 0.11120288086 -0.98449294752 -0.14270697439 0.10202134944 -0.99514113772 -0.043618377144 0.088269775079 
-0.99663264265 0.039910622499 0.071627633023 -0.99284296867 0.10590657535 0.055196348328 -0.98748505333 0.15229455588 0.040983383295 
-0.98329140673 0.17923884347 0.031803245905 -0.98329140673 0.17923884347 0.031803245905 
FrenetBinormal 3 128 double
0.17949290385 0.57528508003 0.79801589844 0.17949290385 0.57528508003 0.79801589844 0.18082655728 0.56212654117 0.80704120582 
0.18375738062 0.54070618922 0.82089587769 0.18936666522 0.51022138376 0.83893647296 0.19907329553 0.46945743491 0.86022063438 
0.21454971459 0.41684979763 0.88329194844 0.23760609798 0.35050450338 0.90591938676 0.26998067323 0.26835740985 0.92471332675 
0.31287968862 0.16880152605 0.93467231972 0.36612392484 0.052097179584 0.92910664379 0.42694287591 -0.077236462133 0.90097408932 
0.48939572731 -0.20854092464 0.84676000428 0.54597315657 -0.32680147613 0.77143639239 0.59121433198 -0.41935921509 0.68891469891 
0.62371241269 -0.48165558774 0.61562222267 0.64478753769 -0.51698600261 0.56300488838 0.65602000741 -0.5322318569 0.53513269418 
0.65807432788 -0.53434709131 0.53048220046 0.65090836774 -0.52900722247 0.54449027115 0.63436803268 -0.52042889464 0.57160385297 
0.60851706173 -0.51155601409 0.60664440163 0.57371285209 -0.50435158598 0.64535497292 0.53015590074 -0.49999542705 0.6847914236 
0.47724551554 -0.49914712086 0.72324882968 0.41268675628 -0.50223449188 0.75990141226 0.33155822854 -0.50967950376 0.79391179897 