# vtk DataFile Version 4.2
vtk output
ASCII
DATASET POLYDATA
POINTS 128 float
0 0 0 -0.329584 0.0481066 0.0374935 -0.980927 0.12301 0.109266 
-1.53247 0.137875 0.165055 -1.99242 0.0937369 0.209482 -2.47512 0.0124221 0.26111 
-2.9687 -0.113858 0.324022 -3.43498 -0.297087 0.399337 -3.86815 -0.532334 0.492135 
-4.27122 -0.809696 0.60775 -4.64361 -1.1194 0.74701 -4.98485 -1.4519 0.908936 
-5.30084 -1.79871 1.09034 -5.5993 -2.15223 1.28732 -5.88686 -2.50814 1.49592 
-6.16954 -2.86337 1.71224 -6.45211 -3.21583 1.93289 -6.73892 -3.56395 2.15446 
-7.03471 -3.9073 2.3726 -7.34357 -4.24563 2.58279 -7.66415 -4.57726 2.78192 
-7.99544 -4.90113 2.96544 -8.35315 -5.22471 3.11491 -8.74724 -5.55926 3.20167 
-9.09561 -5.91806 3.16463 -9.28869 -6.31123 2.94583 -9.31675 -6.71812 2.62007 
-9.21992 -7.10996 2.30806 -9.06279 -7.49701 2.03241 -8.91173 -7.90154 1.77754 
-8.77743 -8.32101 1.53319 -8.64725 -8.74291 1.29158 -8.51513 -9.16107 1.04613 
-8.37754 -9.57205 0.791164 -8.22642 -9.97061 0.524165 -8.05179 -10.351 0.244818 
-7.84575 -10.7101 -0.0411406 -7.60159 -11.0465 -0.324644 -7.31392 -11.3598 -0.594017 
-6.97792 -11.6509 -0.833724 -6.5875 -11.9212 -1.00452 -6.14116 -12.1712 -1.05523 
-5.69107 -12.3838 -0.946387 -5.31567 -12.5347 -0.652834 -5.0478 -12.6222 -0.222192 
-4.89174 -12.6582 0.261587 -4.8256 -12.658 0.760405 -4.81435 -12.638 1.26317 
-4.84053 -12.6078 1.76468 -4.89737 -12.5728 2.26319 -4.97845 -12.5389 2.75837 
-5.07762 -12.5125 3.25074 -5.19079 -12.5003 3.74057 -5.31518 -12.5101 4.22789 
-5.448 -12.5512 4.71137 -5.58636 -12.6344 5.18846 -5.72614 -12.7695 5.65305 
-5.86238 -12.9654 6.09649 -5.98998 -13.2216 6.51145 -6.10396 -13.5308 6.89207 
-6.20169 -13.8822 7.23914 -6.28244 -14.2626 7.55874 -6.34613 -14.6618 7.85791 
-6.39309 -15.0725 8.14433 -6.42313 -15.4892 8.42424 -6.43547 -15.9079 8.70258 
-6.42873 -16.3254 8.98287 -6.40095 -16.7392 9.26736 -6.34964 -17.1473 9.55684 
-6.27184 -17.548 9.85074 -6.16426 -17.9399 10.1472 -6.02334 -18.3216 10.4432 
-5.84582 -18.6913 10.7349 -5.62878 -19.0466 11.0177 -5.37065 -19.3845 11.2871 
-5.0714 -19.7012 11.5392 -4.7329 -19.9927 11.7714 -4.35906 -20.2551 11.9829 
-3.95462 -20.4854 12.1747 -3.52517 -20.6814 12.3493 -3.07604 -20.8417 12.51 
-2.61217 -20.9655 12.6608 -2.13815 -21.0522 12.8055 -1.65803 -21.1015 12.9477 
-1.17569 -21.1137 13.0904 -0.694763 -21.0895 13.2361 -0.218471 -21.0304 13.387 
0.250505 -20.9392 13.5445 0.710342 -20.8201 13.7099 1.16044 -20.6782 13.8838 
1.60112 -20.5197 14.067 2.03399 -20.3518 14.2601 2.46109 -20.182 14.4641 
2.88493 -20.0185 14.6797 3.30751 -19.8692 14.9079 3.72984 -19.7419 15.1496 
4.15174 -19.6433 15.4054 4.57115 -19.5779 15.6754 4.98516 -19.5477 15.9598 
5.38966 -19.5514 16.2591 5.78033 -19.5859 16.5742 6.15263 -19.6468 16.9072 
6.50148 -19.7295 17.2603 6.82067 -19.8308 17.636 7.10322 -19.9488 18.0357 
7.34071 -20.0841 18.4585 7.52586 -20.2387 18.9008 7.65445 -20.4179 19.3537 
7.72552 -20.6271 19.8065 7.74505 -20.8712 20.2468 7.72125 -21.1536 20.6632 
7.66545 -21.4734 21.0482 7.58874 -21.8279 21.3972 7.50027 -22.2116 21.7109 
7.40781 -22.6184 21.9921 7.31617 -23.0431 22.2456 7.22887 -23.4806 22.4773 
7.14714 -23.927 22.6945 7.07163 -24.3785 22.9039 7.0025 -24.8313 23.1093 
6.93865 -25.2822 23.3172 6.87525 -25.7296 23.5444 6.80927 -26.1689 23.7996 
6.74634 -26.5834 24.0578 6.68546 -26.9668 24.3177 6.59381 -27.3607 24.6941 
6.46413 -27.7553 25.2057 6.39449 -27.942 25.4769 
LINES 1 129
128 0 1 2 3 4 5 6 7 8 9 10 11 12 13 14 15 16 17 18 19 20 21 22 23 24 25 26 27 28 29 30 31 32 33 34 35 36 37 38 39 40 41 42 43 44 45 46 47 48 49 50 51 52 53 54 55 56 57 58 59 60 61 62 63 64 65 66 67 68 69 70 71 72 73 74 75 76 77 78 79 80 81 82 83 84 85 86 87 88 89 90 91 92 93 94 95 96 97 98 99 100 101 102 103 104 105 106 107 108 109 110 111 112 113 114 115 116 117 118 119 120 121 122 123 124 125 126 127 

CELL_DATA 1
FIELD FieldData 2
Length 1 1 double
58.415286061 
Tortuosity 1 1 double
0.52321746846 
POINT_DATA 128
SCALARS MaximumInscribedSphereRadius float
LOOKUP_TABLE default
1.55 1.48353 1.41706 1.33789 1.25762 1.1731 1.08851 1.0422 0.998144 
1.06393 1.13775 1.14905 1.15453 1.08834 1.01395 1.02034 1.03779 1.11134 
1.1939 1.28067 1.36822 1.42766 1.48117 1.52864 1.57465 1.6058 1.63301 
1.38349 1.08277 1.09663 1.18404 1.31818 1.46449 1.62888 1.7985 1.82523 
1.80628 1.72475 1.62133 1.68771 1.81887 1.90365 1.96924 2.0143 2.05123 
2.09561 2.14302 2.16185 2.16796 2.14907 2.11816 2.05304 1.97008 1.88459 
1.79769 1.70851 1.61796 1.62167 1.6868 1.74515 1.79878 1.77227 1.68598 
1.64362 1.63646 1.67365 1.74904 1.75689 1.70228 1.6055 1.46687 1.42079 
1.4732 1.55342 1.66534 1.67617 1.56352 1.44874 1.33118 1.27969 1.32081 
1.36224 1.40414 1.44661 1.49004 1.5038 1.46585 1.42058 1.36154 1.39565 
1.61929 1.85348 2.11097 2.29521 2.30339 2.29835 2.25867 2.25049 2.33252 
2.39457 2.39387 2.36808 2.25541 2.13049 1.95857 1.80186 1.70998 1.65202 
1.75543 1.86976 2.04256 2.19565 2.2289 2.23101 2.01369 1.81436 1.76536 
1.73473 1.89219 2.04373 2.11735 2.18646 2.18021 2.17404 2.17194 2.17 
2.17 2.17 
TEXTURE_COORDINATES TCoords 2 float
0 0 0.00787402 0 0.015748 0 0.023622 0 0.0314961 
0 0.0393701 0 0.0472441 0 0.0551181 0 0.0629921 0 
0.0708661 0 0.0787402 0 0.0866142 0 0.0944882 0 0.102362 
0 0.110236 0 0.11811 0 0.125984 0 0.133858 0 
0.141732 0 0.149606 0 0.15748 0 0.165354 0 0.173228 
0 0.181102 0 0.188976 0 0.19685 0 0.204724 0 
0.212598 0 0.220472 0 0.228346 0 0.23622 0 0.244094 
0 0.251969 0 0.259843 0 0.267717 0 0.275591 0 
0.283465 0 0.291339 0 0.299213 0 0.307087 0 0.314961 
0 0.322835 0 0.330709 0 0.338583 0 0.346457 0 
0.354331 0 0.362205 0 0.370079 0 0.377953 0 0.385827 
0 0.393701 0 0.401575 0 0.409449 0 0.417323 0 
0.425197 0 0.433071 0 0.440945 0 0.448819 0 0.456693 
0 0.464567 0 0.472441 0 0.480315 0 0.488189 0 
0.496063 0 0.503937 0 0.511811 0 0.519685 0 0.527559 
0 0.535433 0 0.543307 0 0.551181 0 0.559055 0 
0.566929 0 0.574803 0 0.582677 0 0.590551 0 0.598425 
0 0.606299 0 0.614173 0 0.622047 0 0.629921 0 
0.637795 0 0.645669 0 0.653543 0 0.661417 0 0.669291 
0 0.677165 0 0.685039 0 0.692913 0 0.700787 0 
0.708661 0 0.716535 0 0.724409 0 0.732283 0 0.740157 
0 0.748031 0 0.755906 0 0.76378 0 0.771654 0 
0.779528 0 0.787402 0 0.795276 0 0.80315 0 0.811024 
0 0.818898 0 0.826772 0 0.834646 0 0.84252 0 
0.850394 0 0.858268 0 0.866142 0 0.874016 0 0.88189 
0 0.889764 0 0.897638 0 0.905512 0 0.913386 0 
0.92126 0 0.929134 0 0.937008 0 0.944882 0 0.952756 
0 0.96063 0 0.968504 0 0.976378 0 0.984252 0 
0.992126 0 1 0 
FIELD FieldData 7
Curvature 1 128 double
0 0.034556908018 0.064303810105 0.091545790691 0.11496913843 0.13318674155 0.14498225676 0.14961572743 0.14708873993 
0.13818349255 0.12427344981 0.10705919963 0.088302935932 0.069872758023 0.054407714372 0.046714563958 0.052355188163 0.07087789806 
0.098857323166 0.13493036935 0.17858409766 0.22788737955 0.27743768387 0.31763445429 0.33756586095 0.33133258835 0.3024085941 
0.26127348441 0.21878916158 0.18221938645 0.15476561894 0.13722187315 0.12949120616 0.13152251101 0.14384044595 0.1677786483 
0.20574692936 0.26132358487 0.33853977661 0.43886146975 0.55395853068 0.65660478621 0.70458342022 0.67176012932 0.57521708 
0.45677900998 0.34816574299 0.26134843637 0.19668245533 0.15131593937 0.12316116721 0.11097832735 0.11222621191 0.12207295906 
0.13532944609 0.14794031411 0.15703568918 0.16084158063 0.15878724091 0.15144227283 0.14037101629 0.12766515498 0.11557299611 
0.10614680363 0.10085946414 0.10028945945 0.10403243928 0.1110637423 0.12026690501 0.13066850446 0.14144959352 0.15190826171 
0.1613762844 0.16925247801 0.17495478813 0.17817019349 0.17873053387 0.17677822215 0.17266828492 0.16681229305 0.1596617293 
0.15150439622 0.14249970544 0.13261597159 0.12172708664 0.10981046609 0.096826285874 0.083092498886 0.069330829756 0.056945836532 
0.048533389508 0.047275143302 0.053902688468 0.06578535992 0.079973018296 0.09473508357 0.10918326194 0.12300975859 0.13622755426 
0.14903166119 0.16155560253 0.1737793234 0.1853712122 0.19569704781 0.2039683498 0.20931273696 0.2109893309 0.20857317869 
0.20198256066 0.19146207031 0.17751183882 0.16073493982 0.14175915227 0.12117462099 0.099509914499 0.077306098662 0.05503339623 
0.033437600712 0.014075646798 0.010683840385 0.024337850199 0.035623064003 0.04201431053 0.042721051506 0.037641848542 0.027517038201 
0.013765706937 0 
Torsion 1 128 double
0 0 0.029833048629 0.039753987915 0.048905262928 0.056681577073 0.062529837565 0.065725717528 0.065090906942 
0.058385145967 0.041161409805 0.0041057170108 -0.072870199888 -0.23260824404 -0.53714296109 -0.85576492488 -0.69095339003 -0.31277352753 
-0.077897655068 0.039309118946 0.095407772767 0.12058055917 0.13006796676 0.13237550237 0.13251919218 0.13332813712 0.13669019393 
0.14413790153 0.15812547365 0.18205763612 0.21822184985 0.26466891902 0.31149191925 0.34475803208 0.35607494979 0.34786843673 
0.32800761346 0.30346465642 0.27789556456 0.25278472099 0.22915219295 0.20941790269 0.1967039427 0.19339493379 0.20040897405 
0.21917298968 0.25451049315 0.31477636528 0.41049322145 0.54381365412 0.67637071229 0.7107649465 0.60582243767 0.45130926888 
0.32567762698 0.24347461651 0.19590729992 0.17344415919 0.17031281995 0.18379391232 0.21292665598 0.25639868575 0.3081254165 
0.35245812832 0.36696193798 0.33814283571 0.27589235947 0.20410010656 0.14052094468 0.092738666705 0.06120073454 0.04383426969 
0.038061133451 0.040806919946 0.04997548833 0.063781508996 0.080553227181 0.098799638596 0.1170942068 0.13420295975 0.14893315199 
0.16062965996 0.1698139478 0.17788125281 0.18803735564 0.20500613494 0.23651600887 0.29628609855 0.4056162895 0.58924531514 
0.80591102584 0.838066196 0.61787680861 0.37635959102 0.21069241292 0.10543495987 0.037211913587 -0.0067928093628 -0.032795180253 
-0.04327636317 -0.040029982744 -0.025325728714 -0.0018762802072 0.02691030155 0.057762279419 0.087902313243 0.11514359164 0.13774760642 
0.15451350174 0.16479647331 0.16811293005 0.1645415528 0.15454291126 0.13782516547 0.1131898205 0.074920504323 0.0031494333965 
-0.19853817644 -1.5005375773 -2.3680663723 -0.3285661735 -0.088238725992 -0.027541260426 -0.0071366319769 4.5744705203e-06 0.0018013327636 
0 0 
Abscissas 1 128 double
0 0.50279418679 1.0055883736 1.5083805519 2.0111725567 2.5139675232 3.0167625383 3.5195581831 4.022353865 
4.5251496211 5.0279453826 5.5307378217 6.0335299517 6.5363228026 7.0391157359 7.5419121111 8.0447089576 8.5475031216 
9.0502968546 9.5530885484 10.055879865 10.558674879 11.061470672 11.564268176 12.067066092 12.569861261 13.072655701 
13.575449575 14.078243345 14.581036952 15.083830521 15.586625415 16.089420654 16.592203405 17.094982547 17.597785109 
18.100595158 18.603381565 19.106159704 19.608948147 20.111740521 20.614548421 21.117362745 21.620156048 22.122941038 
22.625733117 23.128528069 23.631321283 24.134113724 24.636909721 25.139707432 25.642502183 26.14529539 26.648089202 
27.150883353 27.653675566 28.156466602 28.659263024 29.162062957 29.664855421 30.167642687 30.670436595 31.173235457 
31.676026669 32.178811753 32.68159432 33.18437472 33.687167835 34.189972711 34.692774319 35.195572685 35.698374183 
36.201179016 36.703963095 37.206723507 37.709510214 38.212329034 38.7151338 39.217920197 39.720714102 40.22351853 
40.726318981 41.22911345 41.73190594 42.234695225 42.737489091 43.240290938 43.743091172 44.245888374 44.748685875 
45.251483985 45.754274216 46.257047058 46.759832058 47.26264628 47.765455142 48.268249954 48.771044887 49.273840166 
49.776634987 50.279428369 50.782220717 51.285009481 51.787799199 52.290592571 52.793384526 53.296170434 53.798957107 
54.301747424 54.80453747 55.307326066 55.810118415 56.312933607 56.81574768 57.318553875 57.821356904 58.324133467 
58.826910153 59.329688104 59.832468271 60.335277635 60.838086882 61.340894185 61.84370083 62.346470954 62.849245973 
63.352079002 63.85491203 
ParallelTransportNormals 3 128 double
0.11045055382 0 0.9938816203 0.10456947302 0.00025599577612 0.99449853685 0.098688392228 0.00051199155224 0.9951154534 
0.10701343648 0.0016289275977 0.99421214362 0.11656617881 0.0028202663889 0.99317745537 0.14543867609 0.012595400002 0.98877770286 
0.17462904836 0.022511765932 0.98432258372 0.21731871213 0.048123713578 0.97350539591 0.26080271049 0.074659231435 0.96231384688 
0.29957405208 0.1085140267 0.94631951759 0.33800121108 0.14290337561 0.92997442365 0.36244932563 0.16967068 0.91565021356 
0.38559643548 0.19572861431 0.90151408352 0.39673020318 0.20920249016 0.89361409411 0.40648976299 0.22123687378 0.8864274577 
0.40669358863 0.22150672225 0.8863020719 0.40558855303 0.22016516716 0.8871438747 0.394173145 0.20743102957 0.89506238823 
0.38110106398 0.19286632924 0.90411798924 0.35158736271 0.16347746505 0.92047703708 0.31902994726 0.13134431428 0.9381881174 
0.21994641586 0.036702048207 0.96206891752 0.10685637499 -0.071100981918 0.9872486998 -0.022216148196 -0.27570524482 0.92086471782 
-0.1551323458 -0.50358952233 0.8324602955 -0.18095348516 -0.58114986106 0.79216715466 -0.17833146784 -0.61878597346 0.76465179031 
-0.18830862301 -0.5943652751 0.7805442354 -0.20061692928 -0.55846256857 0.80446817319 -0.20439311505 -0.54722247608 0.81162085091 
-0.20617426371 -0.54174915992 0.81485196114 -0.20033608061 -0.55884652302 0.80423078271 -0.19251306586 -0.58182353538 0.79000109088 
-0.17822002437 -0.61471658867 0.76697258949 -0.16205656589 -0.65047626558 0.74140044437 -0.14603374503 -0.67650701781 0.72106537647 
-0.1300558793 -0.69942789696 0.7024043523 -0.13480639909 -0.69733119743 0.70373541572 -0.14680714494 -0.6864840286 0.71205916818 
-0.23715503489 -0.63132497917 0.72565303056 -0.35738578035 -0.55926466883 0.74125699725 -0.53514628817 -0.47602729528 0.65411490602 
-0.73671254264 -0.38816486638 0.52445661927 -0.84370846776 -0.34877056061 0.36953335475 -0.91330375911 -0.32854440763 0.20461830752 
-0.93751678601 -0.32395219329 0.095538319763 -0.94333479529 -0.32569696058 0.0090902326839 -0.94168869733 -0.32845403182 -0.053373238536 
-0.93672136231 -0.33166153889 -0.10516448968 -0.93021550173 -0.33394139013 -0.14770519979 -0.92296898064 -0.33577465922 -0.18579261332 
-0.91460006558 -0.33581989007 -0.22249053428 -0.90564601534 -0.33493296686 -0.25846407412 -0.89508328205 -0.33006939651 -0.29714495855 
-0.88361373769 -0.32296419901 -0.33735196711 -0.87174472746 -0.30957575937 -0.37742833062 -0.85963300378 -0.29236965316 -0.41742531485 
-0.85049292518 -0.2741216533 -0.44795348755 -0.84328944153 -0.25519466051 -0.47231091914 -0.83962105019 -0.24419143033 -0.48514018364 
-0.83841256973 -0.23870198824 -0.48994751793 -0.83865142664 -0.24278447027 -0.48740174215 -0.83996986808 -0.25400675352 -0.47937120241 
-0.84096441915 -0.27298021739 -0.46638129622 -0.84169946303 -0.29816407617 -0.44941785028 -0.8406756721 -0.32927406504 -0.42813221649 
-0.8381374123 -0.36548682962 -0.40312490347 -0.83231169901 -0.40595333701 -0.37422074748 -0.82344543548 -0.45035411108 -0.34171241979 
-0.80953989611 -0.49761497476 -0.306114718 -0.79063343387 -0.54771416046 -0.26745115474 -0.76487384434 -0.59930133484 -0.22710613445 
-0.7318206632 -0.65247213395 -0.18497158648 -0.69104763485 -0.70497014916 -0.14325127437 -0.6414709635 -0.75670092779 -0.10200335303 
-0.58570625365 -0.80489944025 -0.063210772499 -0.52238391104 -0.84878389253 -0.027416971647 -0.45605768694 -0.88732321764 0.0053447285521 
-0.38580521763 -0.91887615527 0.034143299453 -0.31488449403 -0.94504055502 0.060818201783 -0.24302729949 -0.96365362401 0.084517060492 
-0.17172331576 -0.97748943572 0.10722712606 -0.10125170545 -0.98413727884 0.12844943128 -0.032959573947 -0.98680071318 0.14919670219 
0.031805743688 -0.98301661149 0.16917527668 0.091853113797 -0.97684504702 0.18832249709 0.14367708069 -0.96651212447 0.20602066369 
0.188255166 -0.95638648307 0.22178595777 0.21920736007 -0.94665063417 0.23391648216 0.24156971391 -0.93951339874 0.2427771198 
0.24645816926 -0.93766239759 0.2449859842 0.24267830372 -0.93901635433 0.24282561986 0.21976362087 -0.94744507037 0.23102043561 
0.18969328791 -0.95726473225 0.21461402714 0.14242226526 -0.9704279377 0.18714723576 0.092012838962 -0.98214304235 0.15662507742 
0.033377415997 -0.99006256372 0.11809456795 -0.023511058745 -0.99560091056 0.079292306554 -0.075396014752 -0.99431922046 0.039711707366 
-0.12370623483 -0.9917508097 0.0013059214509 -0.16078902037 -0.9851411013 -0.033410042518 -0.19566902009 -0.97789499236 -0.068030521647 
-0.22292227594 -0.96844546272 -0.10232040194 -0.24970582054 -0.95756273887 -0.13961977359 -0.27468744338 -0.94118194821 -0.18846425503 
-0.29855658173 -0.92161020695 -0.24272287777 -0.31768158622 -0.88843081823 -0.32006983229 -0.33384939463 -0.85114390686 -0.40029911846 
-0.3359506044 -0.79431859798 -0.494238893 -0.33578079253 -0.73537645451 -0.58580036117 -0.32346730403 -0.6651151081 -0.66464447644 
-0.31094250348 -0.59599732445 -0.73919389073 -0.29713206137 -0.53383708002 -0.78761395577 -0.28399583197 -0.47437418067 -0.83293683922 
-0.27560960419 -0.43391476945 -0.85643928372 -0.26783722479 -0.39618202498 -0.87820571071 -0.26519598206 -0.38124138996 -0.88546082956 
-0.26292172419 -0.36850170831 -0.89166031981 -0.26440667656 -0.3783074963 -0.88704647652 -0.26617351438 -0.39006684378 -0.88133229771 
-0.27165419919 -0.42756438063 -0.86112117412 -0.2773006352 -0.46573249582 -0.84010961036 -0.28571153745 -0.51508479044 -0.80574797895 
-0.294321508 -0.56492334478 -0.77058946992 -0.31398639669 -0.64176550286 -0.69117772204 -0.33212118169 -0.71262865588 -0.61794491623 
-0.33212118169 -0.71262865588 -0.61794491623 -0.33212118169 -0.71262865588 -0.61794491623 
FrenetTangent 3 128 double
-0.98401621272 -0.11597372312 0.13513766553 -0.98401621272 -0.11597372312 0.13513766553 -0.98017993072 -0.13870011522 0.14145522773 
-0.97298413221 -0.17405667785 0.15167778794 -0.96132857275 -0.21998650855 0.16569040793 -0.9442027732 -0.27371656199 0.18319488741 
-0.92106101248 -0.33192850702 0.20364203279 -0.89212015531 -0.39108741533 0.22621286888 -0.85846960962 -0.4478829475 0.24986155108 
-0.82194000024 -0.49966408989 0.27340525465 -0.78477776253 -0.54473197927 0.29561957682 -0.74923811027 -0.58242973481 0.31530597542 
-0.71722033938 -0.61304808422 0.33131107922 -0.69002117335 -0.63762220492 0.34250358264 -0.6682034626 -0.65771327656 0.34773176215 
-0.65155177099 -0.67521526095 0.34578120408 -0.6390766445 -0.69218866541 0.33534444073 -0.62902368163 -0.71070174032 0.3150114986 
-0.61886910634 -0.73263009064 0.28329168624 -0.60530101706 -0.75936146166 0.2387066176 -0.58424910106 -0.79135100267 0.18004604546 
-0.55113410879 -0.82753831314 0.10691835394 -0.50163659234 -0.86483166481 0.020662060859 -0.43322085411 -0.89819103219 -0.074649589884 
-0.34699144479 -0.92196581055 -0.17197668859 -0.24846232894 -0.93230472185 -0.26282004626 -0.14595239922 -0.92899878977 -0.34008696795 
-0.047352022706 -0.9151616988 -0.40029595426 0.042355788265 -0.89521304222 -0.44362100519 0.12159097477 -0.87298368683 -0.47235062971 
0.19130303132 -0.85093025634 -0.48920430196 0.25379387441 -0.83024638651 -0.49626566171 0.31182364369 -0.81130390623 -0.49452197826 
0.36803322142 -0.79405805413 -0.48375960415 0.42459468216 -0.77828347177 -0.46259506423 0.4829651811 -0.76361910513 -0.42852129017 
0.5436229113 -0.74943204985 -0.37792291936 0.60565720732 -0.73449059024 -0.30610932701 0.6660313923 -0.71645619148 -0.2075878372 
0.71842776125 -0.69130674106 -0.077178634596 0.75216407058 -0.65320756071 0.0870005377 0.75316652721 -0.5960760239 0.27826885564 
0.70995872484 -0.51789516819 0.47722447945 0.62302956872 -0.42512974493 0.65658118803 0.50734315966 -0.33106542746 0.79561209209 
0.38310037564 -0.24831606953 0.88970401359 0.26540633611 -0.18372187746 0.94647015193 0.16155730858 -0.13886237882 0.97704476652 
0.073404418301 -0.11268988854 0.9909151227 0.0002037495615 -0.103463484 0.99463323188 -0.059633616496 -0.10957434894 0.9921881343 
-0.10771650428 -0.12969579743 0.98568562678 -0.14535509545 -0.16262828857 0.97592209524 -0.17349258509 -0.20703614986 0.96282727193 
-0.19274228045 -0.26117603684 0.94585278511 -0.20350236087 -0.32271878699 0.92435889872 -0.20611248004 -0.38873942989 0.89799738375 
-0.20100286913 -0.45592077638 0.86702600438 -0.18878888735 -0.5209536554 0.83244582103 -0.17026551615 -0.58099167522 0.79590095322 
-0.14631327594 -0.63399545673 0.75936959785 -0.11775381338 -0.67884857027 0.72477490166 -0.085220121682 -0.71524419981 0.69365932957 
-0.049089316238 -0.74344684763 0.66699102226 -0.0094884913296 -0.76402922315 0.64511186217 0.033653347034 -0.77764950691 0.62779670008 
0.080520866547 -0.78490339491 0.61436393995 0.13130682734 -0.78624127997 0.60380722649 0.18611746786 -0.78192631641 0.59493825214 
0.24488087887 -0.77203339496 0.58651324984 0.30725989168 -0.75646984702 0.57736013848 0.37259564152 -0.73502656817 0.56648780393 
0.43988797313 -0.70745076557 0.55318350065 0.50782492581 -0.67353092701 0.53709397231 0.57485557865 -0.63320697085 0.51825668907 
0.63932457289 -0.58664829854 0.49709945113 0.69963210757 -0.53429484904 0.47438795131 0.75437912241 -0.47686428204 0.45112370387 
0.80249114597 -0.41530107141 0.42840749378 0.84326534459 -0.35071910228 0.40730783187 0.87636908344 -0.28433855316 0.38875289938 
0.90180394514 -0.21744078796 0.37345568447 0.91985607359 -0.15134685214 0.36188248677 0.93105059276 -0.087399546066 0.35426841952 
0.93611906637 -0.026955322671 0.3506486905 0.93596831142 0.028669030662 0.35091509899 0.93163639216 0.078233262096 0.35487066588 
0.92423166672 0.12062076295 0.36227952988 0.91483964699 0.15491170043 0.37292195614 0.90442584853 0.18041046718 0.38660826148 
0.89373250393 0.19666808221 0.40319210911 0.88319050293 0.20349499987 0.42256871697 0.87286919083 0.20095778624 0.44465193561 
0.86245879105 0.18937574376 0.46936303798 0.85130079714 0.16931832224 0.49660674436 0.83845746872 0.14158588091 0.52625327692 
0.82280989765 0.10716643433 0.55812115861 0.80316801176 0.06716602513 0.59195428028 0.77837788733 0.022698808328 0.62738555022 
0.74740968258 -0.025224336672 0.66388440201 0.70943625231 -0.075785029202 0.700683119 0.6639101734 -0.12839893163 0.73670685894 
0.61065130761 -0.18269001231 0.77053834422 0.54996392233 -0.23841064801 0.80043740983 0.48273626948 -0.29532613124 0.82446841682 
0.41049701495 -0.35309234711 0.8407246845 0.33538751212 -0.41115771312 0.84762288293 0.25999518514 -0.46873587141 0.84420920781 
0.18707251231 -0.52484060648 0.83038919364 0.11920382281 -0.57837447366 0.80701512801 0.058493351278 -0.62825141904 0.77580840568 
0.0063394989423 -0.67350976138 0.73915114292 -0.036650792037 -0.71340062355 0.69979730619 -0.070618356915 -0.74743714236 0.66056851718 
-0.09632020216 -0.77538881247 0.62409503135 -0.11493931336 -0.79724796582 0.59260833207 -0.12788382826 -0.81315969389 0.56781778653 
-0.13659945213 -0.82336706525 0.55082416935 -0.14242537469 -0.82818062837 0.54206259734 -0.14648490538 -0.82797776045 0.54129012617 
-0.14961921188 -0.82326406211 0.54758595259 -0.15236545492 -0.81476213182 0.55941705077 -0.15497156198 -0.80351609874 0.57475707394 
-0.15745208945 -0.79093034177 0.59130198207 -0.15966941395 -0.77868838046 0.6067537263 -0.16142120091 -0.76854393484 0.61909887427 
-0.16251787663 -0.76201581248 0.62683318459 -0.16251787663 -0.76201581248 0.62683318459 
FrenetNormal 3 128 double
0.1481037709 -0.95433923245 0.2594261021 0.1481037709 -0.95433923245 0.2594261021 0.17261439971 -0.94832696143 0.26623343748 
0.21080235753 -0.93769275438 0.27621488817 0.26056760629 -0.92132177772 0.28856663779 0.3190508382 -0.89820342201 0.30238580544 
0.3827817098 -0.867838094 0.31675732865 0.44799020095 -0.83060238809 0.33076343927 0.51105286319 -0.78796312025 0.34342261451 
0.56895976519 -0.74256495661 0.35338657418 0.6196736298 -0.6983606255 0.35818574689 0.66229391391 -0.6610355622 0.35270207981 
0.69674037197 -0.63917163237 0.32559557497 0.72121534734 -0.64558444109 0.25113572463 0.71891266414 -0.69112344086 0.074249382735 
0.62583073356 -0.73603917646 -0.25803531472 0.42526356759 -0.68128800535 -0.59581670994 0.27922076647 -0.58472961707 -0.76166071087 
0.23900820645 -0.519187892 -0.82056018064 0.26657943072 -0.47595231665 -0.83809593687 0.33146611848 -0.43517605155 -0.83710932169 
0.41661119149 -0.38392574441 -0.82403649064 0.51118582893 -0.31560742404 -0.79942542003 0.60641446432 -0.22920897994 -0.76139657273 
0.69420805134 -0.12919144404 -0.70808527187 0.76817624114 -0.024366787835 -0.63977458702 0.82543816818 0.07512824364 -0.55947080131 
0.86724824785 0.16117370197 -0.47106635881 0.89728539241 0.22936767194 -0.37718615514 0.91974715094 0.27802159955 -0.27707249686 
0.93705444638 0.30666664799 -0.16698662084 0.9482489898 0.31478005831 -0.04168174936 0.94774252132 0.30253824953 0.10126559558 
0.92700593091 0.27295636456 0.25720580689 0.87954818722 0.23338755365 0.41463868145 0.80461712832 0.19395133624 0.56122558387 
0.70565431856 0.16429546437 0.6892452271 0.5862499494 0.15176269897 0.79578833871 0.44744237664 0.16106771082 0.87968887234 
0.28781128323 0.19441094781 0.93774679344 0.10600207363 0.25023768139 0.96236410116 -0.094104912539 0.32103091158 0.94238177998 
-0.29885735339 0.39203683074 0.87005253041 -0.48722283876 0.44575197866 0.75094545668 -0.64261960253 0.46978030065 0.60526565702 
-0.76143797367 0.46037691588 0.45636094003 -0.85070322173 0.41735153914 0.31956489374 -0.9197883252 0.33758253359 0.20006866281 
-0.972858224 0.21054418274 0.096010536451 -0.99980276506 0.01973158547 0.0022573224787 -0.96695075268 -0.24049162872 -0.084675961234 
-0.83572393854 -0.52519211814 -0.16043296917 -0.62700358077 -0.7478876142 -0.21801519723 -0.41310038618 -0.87218859969 -0.26198304814 
-0.23530176448 -0.92350023951 -0.30295278057 -0.09504877692 -0.93314363175 -0.34671125239 0.018960332919 -0.91911629159 -0.39352985694 
0.11762112905 -0.88991947646 -0.44069104304 0.20940516663 -0.84954851367 -0.4841660863 0.3010330438 -0.79975025788 -0.5194021867 
0.39801293508 -0.74048555771 -0.54154117327 0.50455670059 -0.66952415396 -0.545123787 0.62119012637 -0.58246287951 -0.52427075152 
0.74098864898 -0.4748847763 -0.47478444722 0.84812393058 -0.34790386543 -0.39956063218 0.92599633035 -0.21207652403 -0.31233690806 
0.9689293192 -0.082978198508 -0.23300341835 0.98398940502 0.029324956301 -0.17579788893 0.98173068226 0.12361647266 -0.14465073523 
0.96945329574 0.20365580343 -0.13669170096 0.9504082082 0.27461506062 -0.14598221213 0.925320406 0.34057052849 -0.16671491045 
0.89382117108 0.40462007431 -0.19330367197 0.85532498765 0.46849140669 -0.22121249368 0.80943153974 0.53281732478 -0.24683249559 
0.75600876483 0.59760968634 -0.26704570825 0.69523593525 0.66221236845 -0.27950272523 0.62754111566 0.72554698018 -0.28244243258 
0.55356680308 0.78614513159 -0.27484473182 0.47413709087 0.84230826055 -0.25634120478 0.3903003978 0.89218842815 -0.22730025993 
0.30336373237 0.93399562036 -0.18873957461 0.21487409649 0.96625266804 -0.14207358717 0.1263196015 0.98805887965 -0.08822136145 
0.039140812974 0.99884943995 -0.027709079224 -0.046064128825 0.99808346164 0.041321902506 -0.12932032693 0.98399781349 0.12257469594 
-0.21208612461 0.95114245682 0.22438249172 -0.29647444818 0.88466935348 0.35980972276 -0.3811012301 0.74897227907 0.54203540253 
-0.44614507787 0.48357581679 0.75306639741 -0.44662576098 0.089861160802 0.89019683296 -0.386809562 -0.27052750822 0.88158563398 
-0.32878466503 -0.49541346587 0.80403118215 -0.30140693728 -0.61692183752 0.72702221737 -0.30395484838 -0.68000959582 0.66723189352 
-0.32965022403 -0.70997210893 0.62231048066 -0.37233089054 -0.71907532828 0.58677114807 -0.42639766974 -0.71436053836 0.55486399097 
-0.48711248513 -0.7003271401 0.52178858139 -0.54990988351 -0.68134178696 0.48308642019 -0.61108641108 -0.66099434669 0.43549956583 
-0.66739166053 -0.64247614402 0.376580371 -0.71615613658 -0.62772791261 0.30508696427 -0.75497339935 -0.6174362415 0.22087927463 
-0.78166714037 -0.61103400581 0.12503569655 -0.79429281244 -0.60721422969 0.0197435399 -0.79151678422 -0.60422550396 -0.091720884529 
-0.77292815106 -0.60035422783 -0.20532139301 -0.73935973348 -0.59420658977 -0.31664761672 -0.69287744331 -0.58502100098 -0.42151070801 
-0.63694985147 -0.57253882474 -0.51623074383 -0.5756810598 -0.55732768062 -0.59831193687 -0.51390158848 -0.54031419121 -0.66630753571 
-0.4570185894 -0.52255668988 -0.71976976514 -0.41167502745 -0.50469323154 -0.75882040946 -0.38991564634 -0.48519629137 -0.78265595735 
-0.42353829307 -0.45411147847 -0.78383549258 -0.67599578898 -0.31864448054 -0.66445119332 -0.64735973042 0.49398755626 0.5804323162 
-0.23583042756 0.56754983683 0.78884167749 -0.14998579854 0.5785319836 0.80175121091 -0.12339351026 0.59297303649 0.79571164351 
-0.1136096026 0.6093029149 0.784756533 -0.10988782183 0.62483935731 0.77298152899 -0.10820749114 0.63732687119 0.76295845111 
-0.10758086905 0.64517594584 0.75642207498 -0.10758086905 0.64517594584 0.75642207498 
FrenetBinormal 3 128 double
0.09888056506 0.27529388832 0.95626142289 0.09888056506 0.27529388832 0.95626142289 0.097219197839 0.28537388153 0.95347269248 
0.094150116944 0.30072673855 0.94905172894 0.089173414058 0.32058090703 0.94301430756 0.081778271706 0.34396199845 0.93541566049 
0.071587526407 0.36970327134 0.92638799497 0.058535530558 0.3964218794 0.91620046125 0.043068554593 0.42251033889 0.90533425492 
0.02644658009 0.44601915036 0.89463260388 0.011333841726 0.46428386522 0.88561393198 0.0030042839133 0.47308306831 0.88101270409 
0.01215889986 0.46436157336 0.88556224533 0.060985269493 0.4203078077 0.90532985353 0.19149076715 0.29960246217 0.93464948015 
0.42873789505 0.048277138313 0.90213809102 0.64088371842 -0.23816277049 0.7297578737 0.7255101457 -0.39114487242 0.56625146116 
0.74824869292 -0.44011030786 0.4964139507 0.75003072328 -0.44366604876 0.4905245675 0.74079902822 -0.42940120485 0.51655726213 
0.72297047606 -0.40961123406 0.55635629563 0.6978895167 -0.39045889083 0.60040992418 0.66676921722 -0.37512146461 0.6439741437 
0.63061249488 -0.36508713338 0.68486441457 0.59006078809 -0.36085199912 0.72222856568 0.54529783391 -0.36237686959 0.75586591186 