# vtk DataFile Version 4.2
vtk output
ASCII
DATASET POLYDATA
POINTS 128 float
0 0 0 -0.307003 0.0363761 -0.127821 -0.915577 0.0896764 -0.37472 
-1.435 0.088231 -0.56908 -1.87334 0.0221382 -0.709307 -2.33586 -0.104814 -0.834025 
-2.79471 -0.315548 -0.91962 -3.19259 -0.630275 -0.932187 -3.50741 -1.02214 -0.870333 
-3.73311 -1.45355 -0.74387 -3.89121 -1.90078 -0.570954 -4.00937 -2.34691 -0.370383 
-4.1055 -2.78858 -0.151983 -4.19377 -3.2267 0.077138 -4.28461 -3.66272 0.309586 
-4.3874 -4.09843 0.537262 -4.51243 -4.53699 0.748667 -4.66919 -4.98136 0.928776 
-4.86077 -5.43081 1.04867 -5.08461 -5.88207 1.0777 -5.31766 -6.32457 1.00621 
-5.53109 -6.74705 0.836304 -5.70966 -7.15202 0.593986 -5.84474 -7.54728 0.312729 
-5.93582 -7.93984 0.0125057 -5.98569 -8.33579 -0.293054 -5.9966 -8.73717 -0.595611 
-5.97058 -9.14412 -0.889524 -5.90977 -9.55534 -1.17214 -5.81628 -9.96873 -1.44242 
-5.69201 -10.3811 -1.70146 -5.53863 -10.7888 -1.9514 -5.35726 -11.1891 -2.19509 
-5.14871 -11.5795 -2.43601 -4.91378 -11.9502 -2.68052 -4.653 -12.2899 -2.93612 
-4.3648 -12.6013 -3.20633 -4.04772 -12.8873 -3.49478 -3.71409 -13.0626 -3.83037 
-3.39123 -13.0011 -4.24416 -3.18488 -12.7048 -4.61769 -3.22827 -12.2618 -4.76083 
-3.46069 -11.7786 -4.69325 -3.73618 -11.3586 -4.5318 -4.01217 -11.0087 -4.31966 
-4.29613 -10.6915 -4.06334 -4.5835 -10.3971 -3.77015 -4.86389 -10.1296 -3.44738 
-5.13159 -9.88908 -3.09726 -5.38308 -9.67379 -2.71932 -5.61219 -9.48612 -2.31276 
-5.8107 -9.33119 -1.87669 -5.96495 -9.21873 -1.41084 -6.05813 -9.16127 -0.916751 
-6.07366 -9.17239 -0.41182 -5.9974 -9.26502 0.0771228 -5.84044 -9.43664 0.527111 
-5.62981 -9.67503 0.919158 -5.39074 -9.96892 1.25121 -5.14651 -10.308 1.53217 
-4.91259 -10.6844 1.77016 -4.69878 -11.0919 1.97262 -4.50999 -11.5242 2.14669 
-4.34756 -11.9748 2.29924 -4.20987 -12.4383 2.43605 -4.09308 -12.9105 2.56202 
-3.99198 -13.3879 2.68123 -3.90033 -13.868 2.79708 -3.81145 -14.3488 2.91215 
-3.71837 -14.8286 3.02833 -3.61481 -15.3057 3.14693 -3.49514 -15.7782 3.26875 
-3.35492 -16.244 3.39451 -3.19078 -16.7007 3.52482 -3.00016 -17.1455 3.6605 
-2.78125 -17.5751 3.80256 -2.53303 -17.9857 3.95243 -2.25521 -18.3731 4.11202 
-1.94849 -18.7327 4.28354 -1.61453 -19.0595 4.46942 -1.256 -19.3485 4.67155 
-0.876679 -19.5952 4.89115 -0.481018 -19.7961 5.12808 -0.0741549 -19.9495 5.38069 
0.339274 -20.0561 5.64641 0.75533 -20.119 5.92164 1.17118 -20.1425 6.20299 
1.58539 -20.1325 6.48749 1.99734 -20.0951 6.77271 2.4074 -20.0361 7.05697 
2.81623 -19.9612 7.3391 3.22476 -19.8755 7.61863 3.63383 -19.7839 7.89538 
4.04407 -19.69 8.16963 4.45584 -19.5972 8.44195 4.869 -19.5078 8.71329 
5.28321 -19.4236 8.98473 5.69773 -19.3455 9.25752 6.1118 -19.2742 9.53283 
6.52468 -19.2101 9.81169 6.93577 -19.1539 10.0949 7.34484 -19.1069 10.3826 
7.75185 -19.0712 10.6749 8.15704 -19.0506 10.9713 8.56049 -19.05 11.2707 
8.9619 -19.0762 11.572 9.35986 -19.1373 11.8732 9.75064 -19.244 12.1713 
10.1282 -19.406 12.4625 10.4821 -19.6292 12.7419 10.8022 -19.9149 13.0054 
11.0821 -20.2531 13.2521 11.3182 -20.6326 13.4828 11.5134 -21.0416 13.7013 
11.6717 -21.4698 13.9117 11.7974 -21.911 14.1169 11.8938 -22.3604 14.3196 
11.9627 -22.8158 14.5213 12.0058 -23.2747 14.7228 12.0243 -23.734 14.9236 
12.0181 -24.1925 15.1229 11.9818 -24.6566 15.3208 11.9138 -25.126 15.5155 
11.8296 -25.5732 15.6983 11.7304 -25.9939 15.8662 11.5541 -26.4898 16.0418 
11.2926 -27.0668 16.2228 11.1506 -27.3572 16.3095 
LINES 1 129
128 0 1 2 3 4 5 6 7 8 9 10 11 12 13 14 15 16 17 18 19 20 21 22 23 24 25 26 27 28 29 30 31 32 33 34 35 36 37 38 39 40 41 42 43 44 45 46 47 48 49 50 51 52 53 54 55 56 57 58 59 60 61 62 63 64 65 66 67 68 69 70 71 72 73 74 75 76 77 78 79 80 81 82 83 84 85 86 87 88 89 90 91 92 93 94 95 96 97 98 99 100 101 102 103 104 105 106 107 108 109 110 111 112 113 114 115 116 117 118 119 120 121 122 123 124 125 126 127 

CELL_DATA 1
FIELD FieldData 2
Length 1 1 double
55.86264579 
Tortuosity 1 1 double
0.65541507621 
POINT_DATA 128
SCALARS MaximumInscribedSphereRadius float
LOOKUP_TABLE default
0.9796 1.09273 1.20585 1.35053 1.49802 1.35253 1.19642 1.18048 1.17191 
1.34704 1.53279 1.54782 1.54982 1.49019 1.42446 1.37486 1.32727 1.40676 
1.50514 1.45536 1.38034 1.42417 1.49004 1.55609 1.62218 1.60858 1.57616 
1.68736 1.83669 1.97146 2.10191 2.14697 2.16388 2.08682 1.97551 1.73229 
1.43628 1.32226 1.28784 1.46647 1.75182 1.7324 1.61637 1.50133 1.38659 
1.37723 1.40199 1.54812 1.73766 1.82022 1.86068 1.86881 1.86305 1.8685 
1.87915 2.02371 2.23353 2.22966 2.1168 2.08234 2.09079 2.18184 2.32166 
2.27472 2.10836 1.98754 1.89828 1.86535 1.87472 1.92701 2.01424 2.08535 
2.14224 2.15905 2.13766 2.05178 1.89957 1.81528 1.80635 1.96935 2.33785 
2.4491 2.22952 2.01283 1.80015 1.66026 1.629 1.64197 1.72643 1.81582 
1.91387 1.99103 2.02821 2.06821 2.11413 2.15718 2.19366 2.21575 2.20148 
2.18433 2.15911 2.13687 2.12389 2.13711 2.241 2.34847 2.4699 2.58513 
2.67327 2.69915 2.4203 2.1757 2.12019 2.09117 2.23127 2.40041 2.79019 
3.13631 3.07683 3.00396 2.77268 2.55253 2.51561 2.48 2.48 2.48 
2.48 2.48 
TEXTURE_COORDINATES TCoords 2 float
0 0 0.00787402 0 0.015748 0 0.023622 0 0.0314961 
0 0.0393701 0 0.0472441 0 0.0551181 0 0.0629921 0 
0.0708661 0 0.0787402 0 0.0866142 0 0.0944882 0 0.102362 
0 0.110236 0 0.11811 0 0.125984 0 0.133858 0 
0.141732 0 0.149606 0 0.15748 0 0.165354 0 0.173228 
0 0.181102 0 0.188976 0 0.19685 0 0.204724 0 
0.212598 0 0.220472 0 0.228346 0 0.23622 0 0.244094 
0 0.251969 0 0.259843 0 0.267717 0 0.275591 0 
0.283465 0 0.291339 0 0.299213 0 0.307087 0 0.314961 
0 0.322835 0 0.330709 0 0.338583 0 0.346457 0 
0.354331 0 0.362205 0 0.370079 0 0.377953 0 0.385827 
0 0.393701 0 0.401575 0 0.409449 0 0.417323 0 
0.425197 0 0.433071 0 0.440945 0 0.448819 0 0.456693 
0 0.464567 0 0.472441 0 0.480315 0 0.488189 0 
0.496063 0 0.503937 0 0.511811 0 0.519685 0 0.527559 
0 0.535433 0 0.543307 0 0.551181 0 0.559055 0 
0.566929 0 0.574803 0 0.582677 0 0.590551 0 0.598425 
0 0.606299 0 0.614173 0 0.622047 0 0.629921 0 
0.637795 0 0.645669 0 0.653543 0 0.661417 0 0.669291 
0 0.677165 0 0.685039 0 0.692913 0 0.700787 0 
0.708661 0 0.716535 0 0.724409 0 0.732283 0 0.740157 
0 0.748031 0 0.755906 0 0.76378 0 0.771654 0 
0.779528 0 0.787402 0 0.795276 0 0.80315 0 0.811024 
0 0.818898 0 0.826772 0 0.834646 0 0.84252 0 
0.850394 0 0.858268 0 0.866142 0 0.874016 0 0.88189 
0 0.889764 0 0.897638 0 0.905512 0 0.913386 0 
0.92126 0 0.929134 0 0.937008 0 0.944882 0 0.952756 
0 0.96063 0 0.968504 0 0.976378 0 0.984252 0 
0.992126 0 1 0 
FIELD FieldData 7
Curvature 1 128 double
0 0.063452105551 0.12132393069 0.17936499712 0.23418977943 0.27890923957 0.30472577122 0.30527992481 0.28098688961 
0.23899658702 0.18907190616 0.13971817869 0.098044472179 0.073744594285 0.077478912351 0.10173800682 0.13207034983 0.1607694476 
0.18345808926 0.1973151971 0.20136145253 0.19679948085 0.18658322924 0.1742501673 0.16271763912 0.15356814484 0.14703344513 
0.14256274262 0.13960298313 0.13821277903 0.13940548139 0.1453097706 0.1593401358 0.18677856566 0.23693989184 0.32916656004 
0.50957927704 0.89990279665 1.8142759542 3.6052399054 4.4273523322 2.724989244 1.3518481315 0.74586646119 0.48332818594 
0.36148905921 0.30438191436 0.28192523802 0.28092474417 0.29467227086 0.31866806007 0.34832968727 0.37775021491 0.39965625524 
0.40712481944 0.39639380763 0.36884940684 0.32999337442 0.28653973143 0.24376790733 0.20464004329 0.17008413569 0.13979534618 
0.11294275922 0.088667155674 0.066371565698 0.04603165257 0.02924117671 0.022872979663 0.032470572772 0.048760120221 0.066414639165 
0.084001386774 0.10097885262 0.11705229526 0.13196178715 0.14534910895 0.15688999436 0.16609735619 0.17244185972 0.17541346535 
0.17470361376 0.17019789771 0.16201900197 0.15074177924 0.13697844295 0.12156243086 0.10524093673 0.088689504026 0.072462470211 
0.056913977807 0.042324647945 0.0287203512 0.016253598147 0.0050989047461 0.0073836430499 0.017788882371 0.028479337206 0.039622647892 
0.051619562831 0.064822308267 0.079543240317 0.095860703273 0.1136966999 0.13265181709 0.15186229265 0.17020381872 0.18606671923 
0.19792068376 0.20452772286 0.20538323146 0.20084824434 0.19216255323 0.18087704054 0.16862700422 0.1566210703 0.14557284953 
0.13571934158 0.12679439573 0.11822714547 0.10927727361 0.099193312321 0.087269648821 0.073140458511 0.056701268068 0.038224258474 
0.01830956215 0 
Torsion 1 128 double
0 0 0.0083445952634 0.010162252165 0.01057343903 0.0086836413739 0.003222902963 -0.0081959241588 -0.030207461492 
-0.072406875311 -0.15630479046 -0.33369439607 -0.71572375026 -1.2346668943 -1.0029214068 -0.45921225401 -0.1642505447 -0.015135650854 
0.0731178643 0.13596990263 0.18812926335 0.23482623745 0.27453497216 0.29974965088 0.29999510802 0.26791164262 0.20476028369 
0.11900755933 0.020180909719 -0.084310618066 -0.1870871522 -0.27757301516 -0.34261253206 -0.37403916999 -0.37568622476 -0.35837562929 
-0.3286413683 -0.27958232142 -0.18727063829 -0.079598162262 -0.016455975804 0.055780875243 0.16621039638 0.24839989398 0.28767131272 
0.29512860362 0.27652772041 0.23763963123 0.18654651301 0.13138887415 0.078157984515 0.029855074804 -0.012667451054 -0.049942084191 
-0.082928865013 -0.11255669352 -0.13915871853 -0.16205800178 -0.17975928051 -0.18991235959 -0.19031095974 -0.17894256385 -0.15380686284 
-0.11159236082 -0.043474743922 0.077131948669 0.3392932459 1.0336303062 1.7420203921 0.82250073768 0.33910565143 0.1746682659 
0.1117606172 0.085688590853 0.074569484988 0.06946033177 0.066352868288 0.063165580828 0.058904362382 0.053277099052 0.046375497205 
0.038505799534 0.030006911034 0.021219094109 0.012488527864 0.0041501860329 -0.0034526543799 -0.0099370270242 -0.014632650188 -0.016317232441 
-0.013003769355 0.0010910457634 0.044007240943 0.21376358954 2.4297664376 1.1041926818 0.17335055146 0.065939159608 0.039727531427 
0.031224496403 0.026479516538 0.021227051281 0.01438296362 0.0062237272467 -0.0032538694213 -0.013307891685 -0.02359550967 -0.034096796918 
-0.044655008311 -0.055294464395 -0.065838840021 -0.076116071205 -0.085413884431 -0.092543783685 -0.0962720731 -0.095077927316 -0.088140386633 
-0.07626745655 -0.060850976225 -0.04425178314 -0.029101648314 -0.016786080586 -0.0078670327901 -0.0023004113596 0.0003603981044 0.0013570229661 
0 0 
Abscissas 1 128 double
0 0.50231762312 1.0046352462 1.5069540738 2.0092730086 2.5115919501 3.0139108918 3.5162293042 4.0185476888 
4.5208624394 5.0231769799 5.5254942074 6.02781164 6.5301297813 7.0324479928 7.5347654822 8.0370828823 8.5394032562 
9.0417240721 9.5440408082 10.046356849 10.548673175 11.050989553 11.553309389 12.055629947 12.557947589 13.060264542 
13.562580319 14.064895783 14.567216088 15.069537829 15.571862776 16.07418878 16.576501181 17.078808625 17.581123593 
18.083441572 18.585759762 19.088078045 19.590398713 20.092720577 20.595025661 21.097325425 21.599629271 22.101934373 
22.60425249 23.106574821 23.608898903 24.11122361 24.613544705 25.115864377 25.618183022 26.120501226 26.622817994 
27.125134097 27.627451056 28.129768432 28.632080925 29.134390929 29.636718566 30.139055857 30.641362699 31.143651555 
31.645965635 32.148295843 32.650628132 33.152961862 33.655268222 34.157554032 34.659869829 35.162210047 35.664545334 
36.166876275 36.669202434 37.171524038 37.673830992 38.176122882 38.678429768 39.180753294 39.683076956 40.185400781 
40.687719076 41.19003026 41.692344783 42.194663929 42.696982601 43.199300567 43.701620153 44.20394236 44.706262759 
45.208579986 45.710895736 46.213208658 46.715523091 47.217840687 47.72015756 48.222472776 48.724789444 49.227109781 
49.729426835 50.231734722 50.734045322 51.236364328 51.738687224 52.241023576 52.743355485 53.245670154 53.747987856 
54.2503188 54.752645269 55.254949837 55.757257013 56.25957859 56.761894668 57.264175634 57.766465443 58.268822424 
58.771176132 59.273499437 59.775820979 60.278121665 60.780423366 61.282741777 61.785060732 62.287394308 62.789723371 
63.292001426 63.794279481 
ParallelTransportNormals 3 128 double
-0.37814347514 0 0.92574700227 -0.35359275093 -0.00017558149462 0.93500130891 -0.32904202671 -0.00035116298924 0.94425561556 
-0.27997299218 0.010224732428 0.95847968913 -0.22872116979 0.021757797937 0.97314620538 -0.14491152712 0.075649592693 0.98121572842 
-0.059921284057 0.13107738501 0.98904603358 -0.001092848305 0.21448929661 0.9711302049 0.056360738768 0.29937182258 0.95186137191 
0.07584771714 0.35327082306 0.93055404921 0.093138463413 0.40537753776 0.9091288072 0.098377201658 0.42715641493 0.89853213369 
0.10269610706 0.44662061219 0.88876191773 0.10029536474 0.43656515802 0.89393914292 0.0972282983 0.42358251834 0.90059856491 
0.076314017098 0.36055161149 0.92630129836 0.053192186752 0.29133015833 0.95435952798 -0.012069882487 0.14621500167 0.97398279289 
-0.083596008551 -0.010181592489 0.99235221825 -0.16172182113 -0.17116599636 0.9540513066 -0.24097197533 -0.33293199272 0.90609587297 
-0.27730279983 -0.4234553944 0.85714063463 -0.30567579564 -0.50076944801 0.80800001888 -0.31370574557 -0.53355651688 0.78488215136 
-0.31748917121 -0.55704876707 0.76719642185 -0.31811532444 -0.56430402604 0.76180449974 -0.31799555851 -0.5677232261 0.75931704242 
-0.31780175567 -0.56927070157 0.75824225805 -0.31758828851 -0.57032104403 0.75754268184 -0.31493128167 -0.57786956952 0.75283072104 
-0.31154941519 -0.58734573741 0.74692851326 -0.30108809181 -0.6082149215 0.73379650162 -0.28829351757 -0.63283902143 0.71828168769 
-0.25959382266 -0.67362243373 0.68887597469 -0.22509740214 -0.72029521348 0.65440763235 -0.15122522315 -0.78647204947 0.58214913744 
-0.061596114879 -0.86045378998 0.49476822241 0.15346245902 -0.86399713039 0.22998805872 0.42339279038 -0.83672571139 -0.11239913691 
0.53877461306 -0.45569030498 -0.4182445157 0.57674148356 0.10254915474 -0.70578571915 0.50297353389 0.38991263315 -0.73714308749 
0.39378678621 0.59141118912 -0.68729279384 0.3227774769 0.69276841729 -0.63667630815 0.26353017176 0.763273321 -0.58582376801 
0.21915112862 0.80986905944 -0.53967481119 0.17958607808 0.84872357401 -0.49504876373 0.14451788811 0.88047951799 -0.4468761647 
0.11105884839 0.90969531947 -0.39743447267 0.078224808798 0.9364721806 -0.33254589424 0.045636716876 0.96228927918 -0.26157871577 
0.019434784472 0.98041533205 -0.15734360579 -0.004021914714 0.99523521725 -0.038807532845 0.0014596723686 0.98200571904 0.10777485609 
0.020374342252 0.95575576459 0.26737627738 0.066356521145 0.9002324485 0.4042485003 0.12553229257 0.8304403349 0.53004176573 
0.18428504414 0.75255209399 0.62110927768 0.24282206622 0.67053503164 0.69446752808 0.28985671735 0.59213915043 0.7465019713 
0.33059488405 0.51572553102 0.78686360199 0.35916484052 0.45130529747 0.81467081307 0.3805472888 0.39396930698 0.83506239012 
0.39413171137 0.35138345717 0.84859268964 0.40273011276 0.31822877833 0.85773592039 0.40743462748 0.29876924588 0.86292613757 
0.40944199002 0.28879583799 0.86537824754 0.4092624355 0.2896675962 0.86517219938 0.4074408258 0.2986824896 0.86297026286 
0.40339991509 0.31518646948 0.85875319572 0.39755169798 0.33778924978 0.85289509006 0.38858707662 0.36549620458 0.84523141683 
0.37687579366 0.39770175421 0.8359763958 0.36053169229 0.43407056381 0.82454266314 0.33977465319 0.47440503865 0.81103362387 
0.31226416647 0.51829529303 0.79433425543 0.27780832896 0.5658423665 0.77435390276 0.23485616767 0.61484073007 0.7498616919 
0.18247717775 0.66544932689 0.72036349081 0.1226311634 0.71306549584 0.68600570896 0.053860663948 0.75710515608 0.64583982288 
-0.017024321158 0.79382690935 0.60318667735 -0.090628635328 0.82113748638 0.55733479793 -0.15979273828 0.84092582087 0.51324914625 
-0.22281186592 0.850303841 0.47160784354 -0.27823136398 0.85550420888 0.43456549478 -0.32230796 0.85446918073 0.40438736004 
-0.35901973881 0.85248989118 0.37919549397 -0.38382920432 0.84898457665 0.36206195848 -0.40289631719 0.84608216137 0.34892178655 
-0.4118789828 0.84423852919 0.34279457021 -0.41714072226 0.84317048333 0.33919635355 -0.41527760951 0.84358753493 0.34044068097 
-0.41170778079 0.84435863729 0.34280290004 -0.40456433683 0.84587107049 0.3475058218 -0.39725749552 0.84735404935 0.35232423413 
-0.38957546526 0.84876939587 0.35740783308 -0.38195201578 0.85010119542 0.36249106083 -0.3744765832 0.8512218956 0.36757335063 
-0.36596678384 0.85236130412 0.37344026525 -0.35456967034 0.85355293484 0.38149736845 -0.3402789375 0.85462446669 0.39174835626 
-0.31701977359 0.85532376631 0.40879903005 -0.28908111749 0.854844402 0.42946277535 -0.24495405549 0.85028752474 0.46262571188 
-0.1956836038 0.84190029435 0.49988063309 -0.12645597438 0.81865067884 0.55301311176 -0.056203419349 0.78974503698 0.60747161494 
0.018525521054 0.73613657412 0.66772155969 0.088557549376 0.68114668097 0.72506949478 0.13559986823 0.61939517924 0.76821312761 
0.1783396691 0.56059892246 0.80818349448 0.19732629287 0.5181178692 0.83063501568 0.21458256284 0.47818088449 0.85153595652 
0.22079049377 0.45448782165 0.86253641485 0.22649433604 0.43187574813 0.87299940727 0.22836888356 0.4174753782 0.87937955573 
0.23008082897 0.4031531844 0.88571398029 0.23028249651 0.38955710466 0.89162371298 0.23031898587 0.37556517543 0.8976865897 
0.22840121121 0.35688985263 0.90556135143 0.22626925354 0.33786352788 0.91354629398 0.22061358469 0.31306256431 0.92334391726 
0.21462242979 0.28772091406 0.9332823889 0.19960637496 0.24783426768 0.94700981834 0.18581121788 0.21119065133 0.95962112321 
0.18581121788 0.21119065133 0.95962112321 0.18581121788 0.21119065133 0.95962112321 
FrenetTangent 3 128 double
-0.940856808 -0.23799871882 -0.24113290252 -0.940856808 -0.23799871882 -0.24113290252 -0.9359996671 -0.27376232066 -0.22126638918 
-0.92499311927 -0.3299273837 -0.18850902044 -0.90391872205 -0.40317996237 -0.14274754597 -0.86879559106 -0.48779769356 -0.085133020124 
-0.81743670363 -0.57570689773 -0.018942108181 -0.75130325938 -0.65803501271 0.050332241206 -0.67589504562 -0.72779153675 0.11612651008 
-0.59898500224 -0.78193497641 0.17261129672 -0.5278915765 -0.82141205718 0.21589978179 -0.46760219101 -0.84957623876 0.24406639568 
-0.42036657435 -0.87036598103 0.25642738199 -0.38618626621 -0.88710489712 0.25279451993 -0.36347889079 -0.90197416167 0.23307875843 
-0.34958387469 -0.91589596279 0.19729597031 -0.34109359088 -0.92863894082 0.14589338522 -0.33414777249 -0.9390976813 0.080254664197 
-0.32483472735 -0.94576552929 0.0031565042865 -0.30973383033 -0.94735643109 -0.08112180244 -0.2864735762 -0.9433754849 -0.16725903451 
-0.25406095024 -0.93436117467 -0.24984440927 -0.21281714827 -0.92166576177 -0.32440882385 -0.16399662953 -0.90691505787 -0.3880852784 
-0.1093201053 -0.89145111037 -0.43973177325 -0.050603869618 -0.87598875902 -0.47966961803 0.010445820971 -0.86053375489 -0.50928630604 
0.072314385983 -0.84448926418 -0.53066798685 0.13370548183 -0.82684443313 -0.54630680714 0.19355266807 -0.80635446254 -0.55886478278 
0.25102364672 -0.78165130466 -0.57097142373 0.30551031481 -0.75124716334 -0.58505653327 0.35658684953 -0.71339697755 -0.60325000718 
0.40391520113 -0.6657808199 -0.62736624881 0.44708042951 -0.60488436506 -0.65896433473 0.48523246118 -0.52475968031 -0.69941170747 
0.51613228796 -0.41441800456 -0.7495766664 0.53321531669 -0.25214373319 -0.80753016282 0.51568572179 0.0042945652589 -0.85676705881 
0.40361163087 0.40397279577 -0.8209163366 0.13325583272 0.82563046537 -0.54824922955 -0.15050944951 0.9774687222 -0.1479925766 
-0.31643639134 0.93730962775 0.14600915029 -0.39969157595 0.85357404702 0.33415264532 -0.43984328016 0.76870290811 0.46436378838 
-0.45502291243 0.68873457156 0.56444560332 -0.45280264746 0.61219566688 0.64821773187 -0.43621535191 0.53629450641 0.72256789934 
-0.40623095168 0.45805990031 0.79066904683 -0.36289253232 0.37455874629 0.85323780716 -0.30605174139 0.2831036694 0.90894699734 
-0.23607566304 0.18171308065 0.95459344102 -0.15463318658 0.069847530857 0.98549982245 -0.065373986199 -0.050801095554 0.99656685206 
0.025955842627 -0.17599598994 0.98404862977 0.11239342661 -0.29965479225 0.94740420262 0.18747523563 -0.41552528307 0.89005155758 
0.24687729156 -0.51893672324 0.81838638807 0.28908458405 -0.60762629608 0.73974346065 0.3150042961 -0.68146808759 0.66058575449 
0.32709643339 -0.74164881887 0.58563209674 0.32854526901 -0.78988797861 0.51781752332 0.3227049324 -0.82794423207 0.45866095885 
0.31279066212 -0.85739561587 0.40869886173 0.30171586419 -0.87958173874 0.36783624368 0.29200055259 -0.89560617817 0.33559685772 
0.28571828606 -0.9063436559 0.31129766852 0.28446926915 -0.9124384769 0.29416536298 0.28937881449 -0.91429367668 0.28342013778 
0.30111356003 -0.91206449953 0.27833248581 0.31991049707 -0.90566585791 0.27825640636 0.34561806008 -0.89479566452 0.28264620164 
0.37773501316 -0.87898043023 0.29104924517 0.41544703875 -0.85763923656 0.30308199864 0.45767194881 -0.83015753971 0.31839416852 
0.50310621382 -0.79597091425 0.33662210457 0.55026285685 -0.75466858264 0.35733194476 0.59753896351 -0.70608951168 0.37997998446 
0.64329938196 -0.65041430469 0.40389000658 0.6859678527 -0.5882600325 0.42825020633 0.72415384312 -0.52072580746 0.4521568809 
0.75679208257 -0.44936368315 0.47469782392 0.78325443094 -0.37607584753 0.4950550003 0.80340234343 -0.30296991155 0.51259526653 
0.81758373601 -0.23213205128 0.52694548616 0.8265418829 -0.16543033389 0.53801609682 0.83127283414 -0.10437984452 0.54597648601 
0.83286968604 -0.050057027005 0.55120085279 0.83238198759 -0.0031080546097 0.55419361844 0.83071301896 0.036212004519 0.55552189053 
0.82856248067 0.06795365406 0.55575760591 0.82641316524 0.092391609777 0.55543232779 0.82454539101 0.10992527579 0.55501471323 
0.82307301277 0.12102328339 0.55489114295 0.82198691438 0.12614222807 0.55536082945 0.82119987269 0.12565676921 0.55663376241 
0.82058443746 0.11982557289 0.55882288168 0.81999371272 0.10872749811 0.56195074718 0.81925586287 0.09226069771 0.56595741431 
0.8181583497 0.070134064396 0.57069968269 0.81641111222 0.041887024999 0.57594997437 0.81359078958 0.0069454247594 0.58139641226 
0.80908348684 -0.035276001018 0.5866340555 0.80203858304 -0.085238215022 0.59115865722 0.79135782635 -0.14312376801 0.59436384287 
0.77574102365 -0.20861891698 0.59557032474 0.7538205096 -0.28074423121 0.59408527666 0.72439032087 -0.3577367763 0.58930727292 
0.68669139428 -0.43707910056 0.58087588078 0.64066209781 -0.51576734953 0.56880235371 0.58705498453 -0.59073186042 0.55353619053 
0.52734524294 -0.65932169207 0.535912214 0.46343026361 -0.71969147229 0.51698798388 0.39726356222 -0.77094364465 0.49782281879 
0.33054751607 -0.81303788544 0.47927834967 0.26456186264 -0.84655007247 0.46190907724 0.20017153083 -0.87239326496 0.44593872842 
0.13791885234 -0.89159938808 0.43131070163 0.078182173508 -0.90516874295 0.4178003046 0.021352716713 -0.9140113321 0.40512633373 
-0.032038618281 -0.91895270423 0.393064186 -0.081259074934 -0.92077285236 0.38154202533 -0.12536139044 -0.92025747235 0.37068950131 
-0.16325891549 -0.91822884638 0.360835575 -0.19385124337 -0.91553066186 0.35245610031 -0.21614686484 -0.91296591618 0.34608347072 
-0.22939056927 -0.91120286179 0.34218315476 -0.22939056927 -0.91120286179 0.34218315476 
FrenetNormal 3 128 double
0.099129170175 -0.87394735322 0.47580398425 0.099129170175 -0.87394735322 0.47580398425 0.1368870095 -0.86220735325 0.48770936697 
0.1969692579 -0.84056112771 0.50463858554 0.2768153935 -0.80590521737 0.5233450282 0.37139309212 -0.75563289737 0.5395239527 
0.47293013355 -0.68955267173 0.54850177911 0.57226290942 -0.61158586121 0.54633130687 0.66181170798 -0.53002649425 0.53016712325 
0.73840964183 -0.45596759915 0.49683473045 0.80425969583 -0.40177473335 0.43788515082 0.86417708606 -0.38131855238 0.32832015707 
0.90719408044 -0.40847084421 0.10074954018 0.82197820903 -0.45532183772 -0.34210210167 0.48990318543 -0.39786781904 -0.77569070349 
0.21943756583 -0.28476714576 -0.93314244754 0.11185765859 -0.19419439483 -0.97456472398 0.099016855427 -0.1196543113 -0.98786563263 
0.13894433831 -0.051022880238 -0.98898490208 0.21190667621 0.014394004509 -0.97718389938 0.30751055688 0.074803980505 -0.94859982179 
0.41862596471 0.12663739358 -0.89928597911 0.53835728051 0.16646624811 -0.82611163093 0.65752891438 0.19277379575 -0.72835018393 
0.76451648051 0.20731973808 -0.61035487811 0.84828915367 0.21578782535 -0.48357122143 0.90324592006 0.22662585139 -0.36440023515 
0.93068499433 0.24843399914 -0.26852558427 0.93522026751 0.2876411177 -0.20645977489 0.91966015936 0.34751933779 -0.18290845018 
0.88228271457 0.42740919415 -0.1972272606 0.81794590851 0.52161351698 -0.24265990534 0.72309094626 0.61961191498 -0.30532041899 
0.60146382646 0.71000572571 -0.36624190765 0.46390980123 0.78666624735 -0.40736213814 0.32107225067 0.85094368538 -0.41570115969 
0.17680097819 0.90785460012 -0.38018605861 0.024761019925 0.95879304682 -0.28302435454 -0.15339206607 0.98429336629 -0.087392466184 
-0.37050695878 0.89254955468 0.25706008235 -0.53801014131 0.5248407105 0.65961148902 -0.52963495619 0.046677528973 0.84694038838 
-0.43019336673 -0.27897389594 0.85854949339 -0.31136012021 -0.46928492941 0.82633318376 -0.18380546995 -0.58317374001 0.79127993667 
-0.048833652336 -0.65221296756 0.75646118165 0.088101891209 -0.6927398943 0.71578592862 0.21833708574 -0.71591665771 0.66316834681 
0.33380719781 -0.73108923574 0.59504729567 0.42983522886 -0.74513485904 0.50991736377 0.50459480193 -0.76137978215 0.40704411703 
0.55767223446 -0.77914913554 0.28623120637 0.58819927355 -0.7949397892 0.14863494252 0.59489541819 -0.80380074586 -0.0019499681671 
0.57647256099 -0.80158323997 -0.15856763801 0.53320049786 -0.7863644446 -0.31197466138 0.4671849072 -0.75934838918 -0.4529109033 
0.3824694776 -0.72378524103 -0.57432745326 0.28390644102 -0.68355492698 -0.67242084631 0.17697566909 -0.641636862 -0.74631209951 
0.06756109215 -0.5997832278 -0.79730519783 -0.037962737389 -0.55885288661 -0.82839741773 -0.1326638999 -0.51936859658 -0.84418987825 
-0.20904746738 -0.48188236012 -0.85093392657 -0.25770509428 -0.44669437287 -0.85676847609 -0.2624319905 -0.41244930715 -0.87236174801 
-0.18207210034 -0.37026264227 -0.91090906572 0.11170710365 -0.27320466359 -0.95544792364 0.72719421332 0.017443893248 -0.68621008933 
0.95141895061 0.2676696779 -0.15216742077 0.92921751183 0.35725415063 0.094468447515 0.89144117818 0.40715044375 0.19889982908 
0.85649120922 0.45112264545 0.25082098652 0.8212673331 0.49690636476 0.28036410655 0.78272411162 0.5460509839 0.29861561926 
0.73899703294 0.59817547752 0.30995077577 0.68922513295 0.65208906245 0.31582997126 0.63321694981 0.70625305687 0.31661161402 
0.57144794844 0.75898513728 0.31207179239 0.50491377342 0.80862087688 0.30198403748 0.43507425542 0.85365795913 0.28631884514 
0.36371541939 0.89290394382 0.26539336994 0.29280522427 0.92559383301 0.23987737896 0.22437661106 0.95145462474 0.21068752565 
0.16030625947 0.97071941527 0.17890142535 0.10213969967 0.98404776509 0.14566220437 0.051024271966 0.99239294494 0.11203912933 
0.0075778357438 0.99683968384 0.079077311069 -0.028026149516 0.99846873222 0.047694084711 -0.056303500164 0.99823051763 0.019124579544 
-0.078371928809 0.99691138887 -0.0050520800242 -0.09651489819 0.99509007265 -0.021923086882 -0.11623745465 0.992932101 -0.023972837523 
-0.15474174487 0.98785468283 0.014075439885 -0.35524083227 0.87576111203 0.32687371528 -0.18159864661 -0.86719466327 0.46367590788 
-0.064550068889 -0.95208698256 0.29893756246 -0.044522358827 -0.9667009234 0.25200611949 -0.04467894308 -0.97370113804 0.22340520545 
-0.053448603656 -0.97895957956 0.19692990721 -0.068823682579 -0.98319940461 0.16906280339 -0.090810260446 -0.98613992317 0.13885801569 
-0.12028937939 -0.98700420329 0.10655124543 -0.15798735109 -0.98478700291 0.072350230144 -0.20426910552 -0.9782374082 0.036410242184 
-0.25915487497 -0.96583547691 -0.00076310581854 -0.32167142551 -0.94605152534 -0.038910222429 -0.39034684565 -0.91743377843 -0.077101246979 
-0.46294281706 -0.87900930307 -0.11413410205 -0.53686948013 -0.83051421503 -0.14838227636 -0.60946123726 -0.77255273933 -0.17809903209 
-0.67833346928 -0.70651966399 -0.20172671825 -0.74170254339 -0.63427771882 -0.21810344458 -0.79824620199 -0.55791710999 -0.22700550517 
-0.84709270452 -0.47949092244 -0.22917767177 -0.88775676532 -0.40088149229 -0.22623429175 -0.9199042727 -0.32399636004 -0.22091285104 
-0.94373482085 -0.2504530742 -0.2159579717 -0.95987936057 -0.18154955245 -0.21370861743 -0.96924037006 -0.11830236424 -0.21581857115 
-0.97302943696 -0.061208575087 -0.22241228639 -0.97251895506 -0.010550683828 -0.23258453328 -0.96898281893 0.033364543426 -0.24486548115 
-0.96372441143 0.070152552223 -0.25751481167 -0.95803922097 0.099343220636 -0.26887129931 -0.95314599634 0.12047058123 -0.27748792534 
-0.94979612825 0.13270747308 -0.28333026904 -0.94979612825 0.13270747308 -0.28333026904 
FrenetBinormal 3 128 double
-0.32397820059 0.42376011332 0.84585193261 -0.32397820059 0.42376011332 0.84585193261 -0.32429395589 0.42620731081 0.844500301 
-0.32494744305 0.42965673748 0.84249881139 -0.32604322084 0.43354665097 0.84007923411 -0.3275078504 0.43711821579 0.83765522343 
-0.32883783895 0.4394071925 0.83593480299 -0.32872264137 0.43926376634 0.83605548179 -0.32430101834 0.43519121593 0.8399032415 
-0.30978729469 0.42505439792 0.85050607926 -0.27294106528 0.40479537542 0.87272210865 -0.18586595946 0.36443981143 0.91248970896 
0.017054136824 0.27498114207 0.96129835531 0.41858331508 0.075676453436 0.90501993499 0.79238750927 -0.16776117029 0.58649656853 
0.91084481074 -0.28291740498 0.30053198283 0.93335043069 -0.31609848877 0.17011384106 0.93730514161 -0.32214653618 0.13296872093 
0.93550888331 -0.32081806262 0.14798276905 0.92690911902 -0.31985716361 0.19629284234 0.90739745842 -0.32318270218 0.2686685569 
0.87189754859 -0.33306480725 0.35897423158 0.81540192539 -0.35045857363 0.46075860084 0.7353644214 -0.37462426707 0.56470862067 
0.63526660987 -0.4029062472 0.65886484985 0.52710981792 -0.43136910936 0.73217206403 0.42899614535 -0.45620431846 0.77964089625 