# vtk DataFile Version 4.2
vtk output
ASCII
DATASET POLYDATA
POINTS 128 float
0 0 0 -0.08644 0.0399806 -0.326184 -0.289394 0.0928397 -0.952959 
-0.54044 0.0745482 -1.44514 -0.845044 -0.0228995 -1.79121 -1.21937 -0.186043 -2.07661 
-1.63542 -0.402648 -2.28413 -2.05854 -0.660109 -2.38227 -2.47691 -0.942653 -2.39815 
-2.88608 -1.23577 -2.37022 -3.28571 -1.53536 -2.31136 -3.67683 -1.84032 -2.2272 
-4.06105 -2.1493 -2.12561 -4.44021 -2.46105 -2.01483 -4.8163 -2.77545 -1.90147 
-5.19124 -3.09266 -1.79152 -5.56643 -3.41225 -1.69036 -5.94339 -3.73392 -1.60585 
-6.32574 -4.05924 -1.56131 -6.71303 -4.38912 -1.5862 -7.07535 -4.71619 -1.71324 
-7.3744 -5.03074 -1.96794 -7.59023 -5.32839 -2.32074 -7.71406 -5.60844 -2.72291 
-7.76194 -5.8803 -3.14487 -7.75815 -6.15629 -3.56647 -7.71481 -6.44056 -3.97968 
-7.63856 -6.73376 -4.3817 -7.53426 -7.03655 -4.77015 -7.40583 -7.34948 -5.14296 
-7.25614 -7.67233 -5.49895 -7.08749 -8.00456 -5.83738 -6.90163 -8.34555 -6.15758 
-6.70003 -8.69468 -6.4589 -6.48379 -9.05141 -6.74054 -6.25373 -9.41532 -7.0014 
-6.0102 -9.78657 -7.23854 -5.7533 -10.1656 -7.44794 -5.48353 -10.5519 -7.62524 
-5.20158 -10.9452 -7.76429 -4.90772 -11.3471 -7.84288 -4.60419 -11.7584 -7.82936 
-4.31771 -12.1538 -7.69146 -4.08828 -12.4936 -7.40183 -3.93559 -12.7582 -6.99131 
-3.86453 -12.9428 -6.52433 -3.85754 -13.0685 -6.03636 -3.88422 -13.171 -5.54348 
-3.92933 -13.2683 -5.05207 -3.98791 -13.3663 -4.5622 -4.0541 -13.4723 -4.07472 
-4.12136 -13.5946 -3.59113 -4.18434 -13.7398 -3.11333 -4.23858 -13.9127 -2.64359 
-4.27969 -14.1175 -2.18542 -4.30344 -14.3575 -1.74328 -4.30691 -14.6333 -1.32179 
-4.28838 -14.9436 -0.925501 -4.24804 -15.2845 -0.556899 -4.18769 -15.6507 -0.216602 
-4.10964 -16.037 0.0967279 -4.01662 -16.4383 0.386112 -3.91094 -16.8503 0.655094 
-3.79458 -17.2698 0.907639 -3.66869 -17.6938 1.14759 -3.53371 -18.12 1.37864 
-3.3894 -18.546 1.60419 -3.23486 -18.9697 1.82732 -3.06862 -19.3888 2.05078 
-2.8886 -19.8008 2.27696 -2.69242 -20.2027 2.50773 -2.47745 -20.5915 2.74435 
-2.24121 -20.9636 2.98744 -1.98146 -21.3154 3.23689 -1.69688 -21.6433 3.49191 
-1.38717 -21.9441 3.75092 -1.05315 -22.2156 4.0122 -0.696854 -22.4566 4.27391 
-0.320799 -22.6667 4.53453 0.0720114 -22.8467 4.79292 0.478671 -22.9978 5.04827 
0.896461 -23.1217 5.30023 1.32293 -23.2204 5.54867 1.75599 -23.2958 5.79378 
2.19381 -23.3501 6.03595 2.63488 -23.3851 6.27572 3.07791 -23.4028 6.51373 
3.52185 -23.4047 6.75068 3.96578 -23.3924 6.9873 4.40894 -23.3674 7.22436 
4.85065 -23.3311 7.46263 5.29036 -23.2848 7.70285 5.72764 -23.2299 7.94568 
6.16217 -23.1679 8.19171 6.59376 -23.1005 8.44141 7.02242 -23.0292 8.6951 
7.44824 -22.9561 8.95299 7.87149 -22.8832 9.21512 8.2925 -22.8124 9.48145 
8.71166 -22.746 9.75178 9.12939 -22.6862 10.0258 9.54603 -22.6349 10.3033 
9.96185 -22.5944 10.5838 10.377 -22.5667 10.8669 10.7912 -22.5539 11.1522 
11.2043 -22.5581 11.4397 11.6153 -22.5815 11.7292 12.0232 -22.6265 12.0206 
12.4264 -22.6956 12.3139 12.8225 -22.7916 12.6093 13.2085 -22.9172 12.907 
13.5804 -23.0753 13.2074 13.9332 -23.2684 13.5106 14.2604 -23.4986 13.8166 
14.5552 -23.7668 14.125 14.8104 -24.072 14.4342 15.0186 -24.4122 14.7425 
15.1735 -24.7831 15.0468 15.2706 -25.1791 15.3441 15.3115 -25.591 15.6306 
15.2975 -26.0116 15.9035 15.2258 -26.4409 16.1637 15.0992 -26.8738 16.4101 
14.9443 -27.284 16.6331 14.7714 -27.6648 16.8322 14.513 -28.1023 17.0461 
14.1595 -28.6094 17.2812 13.9708 -28.8658 17.3977 
LINES 1 129
128 0 1 2 3 4 5 6 7 8 9 10 11 12 13 14 15 16 17 18 19 20 21 22 23 24 25 26 27 28 29 30 31 32 33 34 35 36 37 38 39 40 41 42 43 44 45 46 47 48 49 50 51 52 53 54 55 56 57 58 59 60 61 62 63 64 65 66 67 68 69 70 71 72 73 74 75 76 77 78 79 80 81 82 83 84 85 86 87 88 89 90 91 92 93 94 95 96 97 98 99 100 101 102 103 104 105 106 107 108 109 110 111 112 113 114 115 116 117 118 119 120 121 122 123 124 125 126 127 

CELL_DATA 1
FIELD FieldData 2
Length 1 1 double
59.213464726 
Tortuosity 1 1 double
0.62298876149 
POINT_DATA 128
SCALARS MaximumInscribedSphereRadius float
LOOKUP_TABLE default
1.24 1.16778 1.09555 1.04155 0.988402 1.17731 1.37079 1.40923 1.4406 
1.35199 1.25578 1.16826 1.08146 1.07185 1.07006 1.20722 1.36128 1.49488 
1.62558 1.5093 1.35212 1.2006 1.05017 1.19824 1.4038 1.43074 1.41784 
1.3642 1.30052 1.2831 1.27831 1.27016 1.26101 1.19932 1.12038 1.05532 
0.995237 1.02374 1.0867 1.1758 1.27583 1.36708 1.45423 1.50515 1.53902 
1.55 1.55 1.55168 1.55425 1.55969 1.56677 1.59324 1.63164 1.68996 
1.7614 1.78147 1.76539 1.71745 1.64555 1.60482 1.5891 1.58201 1.58232 
1.65314 1.78853 1.91115 2.02128 1.99008 1.81124 1.62405 1.42756 1.30246 
1.26242 1.26592 1.32484 1.43576 1.61738 1.7829 1.92503 2.03663 2.10074 
2.13362 2.11443 2.07443 1.9972 1.95268 1.97105 2.00629 2.07646 2.11379 
2.07782 2.02951 1.95138 1.87248 1.79153 1.71357 1.64408 1.62304 1.75247 
1.88444 2.02507 2.13577 2.13431 2.13192 2.12566 2.13157 2.19375 2.25591 
2.31791 2.3763 2.41338 2.4359 2.35978 2.27531 2.12496 1.99031 2.00272 
2.01936 2.08409 2.14551 2.15809 2.17 2.17 2.17 2.17 2.17 
2.17 2.17 
TEXTURE_COORDINATES TCoords 2 float
0 0 0.00787402 0 0.015748 0 0.023622 0 0.0314961 
0 0.0393701 0 0.0472441 0 0.0551181 0 0.0629921 0 
0.0708661 0 0.0787402 0 0.0866142 0 0.0944882 0 0.102362 
0 0.110236 0 0.11811 0 0.125984 0 0.133858 0 
0.141732 0 0.149606 0 0.15748 0 0.165354 0 0.173228 
0 0.181102 0 0.188976 0 0.19685 0 0.204724 0 
0.212598 0 0.220472 0 0.228346 0 0.23622 0 0.244094 
0 0.251969 0 0.259843 0 0.267717 0 0.275591 0 
0.283465 0 0.291339 0 0.299213 0 0.307087 0 0.314961 
0 0.322835 0 0.330709 0 0.338583 0 0.346457 0 
0.354331 0 0.362205 0 0.370079 0 0.377953 0 0.385827 
0 0.393701 0 0.401575 0 0.409449 0 0.417323 0 
0.425197 0 0.433071 0 0.440945 0 0.448819 0 0.456693 
0 0.464567 0 0.472441 0 0.480315 0 0.488189 0 
0.496063 0 0.503937 0 0.511811 0 0.519685 0 0.527559 
0 0.535433 0 0.543307 0 0.551181 0 0.559055 0 
0.566929 0 0.574803 0 0.582677 0 0.590551 0 0.598425 
0 0.606299 0 0.614173 0 0.622047 0 0.629921 0 
0.637795 0 0.645669 0 0.653543 0 0.661417 0 0.669291 
0 0.677165 0 0.685039 0 0.692913 0 0.700787 0 
0.708661 0 0.716535 0 0.724409 0 0.732283 0 0.740157 
0 0.748031 0 0.755906 0 0.76378 0 0.771654 0 
0.779528 0 0.787402 0 0.795276 0 0.80315 0 0.811024 
0 0.818898 0 0.826772 0 0.834646 0 0.84252 0 
0.850394 0 0.858268 0 0.866142 0 0.874016 0 0.88189 
0 0.889764 0 0.897638 0 0.905512 0 0.913386 0 
0.92126 0 0.929134 0 0.937008 0 0.944882 0 0.952756 
0 0.96063 0 0.968504 0 0.976378 0 0.984252 0 
0.992126 0 1 0 
FIELD FieldData 7
Curvature 1 128 double
0 0.073766930891 0.1375402908 0.19487514759 0.23955562357 0.26479670614 0.26690235885 0.24782216981 0.2140407455 
0.17304056232 0.13057055191 0.090269333882 0.056090382598 0.041702538659 0.062206856723 0.099195405272 0.14201905128 0.18734381024 
0.23161667374 0.26950878817 0.29469247839 0.30249621751 0.29254766171 0.26912716062 0.23887625247 0.20794223476 0.18045810305 
0.15849104225 0.14261307045 0.13258121924 0.12786564009 0.12799810167 0.13281857911 0.14260788051 0.15806615923 0.18032697405 
0.21081285962 0.25083267713 0.3006177164 0.35744363924 0.4130301284 0.45285647221 0.46125735589 0.43163563237 0.37192237379 
0.29838388068 0.22520853125 0.16011794648 0.10551160981 0.06231600346 0.036378704305 0.041864737158 0.0634235912 0.085175722797 
0.10341802615 0.11690459948 0.12513917259 0.128068252 0.12613742573 0.12014201676 0.1112215104 0.10054991416 0.089378075192 
0.078944633796 0.070495600258 0.065262229672 0.064078105556 0.066963964879 0.07311871348 0.08133999138 0.090544778735 0.099809494905 
0.10840102225 0.1156941919 0.12129212685 0.12480138063 0.12613018064 0.12526967581 0.12241025575 0.11782411028 0.1118959422 
0.10500274378 0.097466729987 0.089661988584 0.081760523527 0.07398699525 0.066451953837 0.059200443096 0.052263850969 0.045640477444 
0.039291539791 0.033226715376 0.027438796547 0.022105634211 0.017628472187 0.014915303773 0.015271990069 0.018772982891 0.024343132927 
0.031126035022 0.038702699469 0.046872530405 0.055617879632 0.064957753367 0.074911703459 0.085564984027 0.096994620031 0.10929896705 
0.12247159501 0.13651375422 0.15129046325 0.16645169161 0.1814995585 0.19582611289 0.20839434568 0.2181472024 0.22397808321 
0.22488283645 0.22019074731 0.2096969544 0.19367916334 0.17280609486 0.14802884934 0.12033936814 0.090650008525 0.05974634442 
0.028210840025 0 
Torsion 1 128 double
0 0 -0.0048061417576 -0.0071116075304 -0.01021193018 -0.014677839593 -0.021645593925 -0.033269933245 -0.054088321518 
-0.094545795097 -0.18243017575 -0.40859491549 -1.1079461895 -2.0390692701 -0.88793776961 -0.30710334423 -0.10424950995 -0.012438072941 
0.040066256692 0.076603745659 0.10668674538 0.13519173686 0.16492041594 0.19715474237 0.23190921619 0.26724152277 0.29927075777 
0.32266452741 0.33195237923 0.32484734921 0.30356555576 0.27352490694 0.24045791456 0.20877495993 0.18033146719 0.15586738658 
0.13554881509 0.11899363336 0.10564358948 0.095293177459 0.087688008513 0.083165762965 0.082197660508 0.085469561732 0.094576543286 
0.11248055024 0.14653863148 0.21611410585 0.38127025073 0.86897472613 2.1024350486 1.3472705884 0.50779473618 0.24596054747 
0.14668181408 0.10204021887 0.081037300895 0.073301272577 0.075581736761 0.087384139542 0.11023562166 0.14743481184 0.20218947043 
0.27584236344 0.35911286221 0.42271779595 0.42906714417 0.37243217192 0.28612764115 0.20404830678 0.13988146101 0.093802126386 
0.062049420035 0.041106326017 0.027684279476 0.019694665257 0.015812035753 0.014953770824 0.016494575404 0.020016984107 0.025453230851 
0.032396536685 0.040899672124 0.050924416857 0.062341880797 0.075502239054 0.090233362749 0.10717091628 0.12730507242 0.15212824625 
0.18581167545 0.2354500894 0.31614828975 0.45720029144 0.69627917618 0.97018582456 0.94866968359 0.65271849075 0.4033391062 
0.25150222873 0.15881177691 0.098710589667 0.056377239469 0.024560055672 -0.00050907468142 -0.020290771387 -0.035869311351 -0.047847294078 
-0.056570624435 -0.062168900301 -0.065481257982 -0.066814287564 -0.066052534806 -0.064000357797 -0.060877324327 -0.056947851442 -0.052440447957 
-0.04752692816 -0.042314976643 -0.037017401145 -0.031718975292 -0.026586440639 -0.02156556718 -0.016766457439 -0.012658690524 -0.0081407014432 
0 0 
Abscissas 1 128 double
0 0.50316024501 1.00632049 1.5094829308 2.0126454754 2.5158063811 3.0189672558 3.5221283017 4.0252893555 
4.5284469796 5.0316043862 5.5347668147 6.0379296518 6.5410882124 7.0442463402 7.5474091373 8.0505725022 8.5537330813 
9.0568932647 9.560051576 10.063209577 10.566369533 11.069529864 11.57268989 12.075849858 12.579010213 13.082170655 
13.585331971 14.088493504 14.591654061 15.094814353 15.597973886 16.101133192 16.60429553 17.107458863 17.610618682 
18.113777243 18.616924989 19.120068526 19.623233619 20.126407741 20.62958254 21.132757656 21.635909997 22.139051628 
22.642210416 23.14537744 23.648537899 24.15169483 24.654857842 25.158024328 25.661183526 26.164338245 26.66750023 
27.170666999 27.673827355 28.176983197 28.680130991 29.183272732 29.686425843 30.189588086 30.692758335 31.195935452 
31.699102596 32.202260611 32.705417678 33.208573818 33.711737445 34.214908891 34.718077463 35.22124283 35.724395598 
36.227533356 36.730690263 37.23387155 37.73704494 38.240207593 38.743366845 39.246521153 39.749677684 40.252837672 
40.755997608 41.259157456 41.76231756 42.265478124 42.768639713 43.271803275 43.774964099 44.278119258 44.781276715 
45.284439304 45.787601119 46.290761068 46.793921397 47.297082725 47.800244162 48.303405913 48.806567685 49.309729524 
49.812890168 50.316046742 50.81920624 51.322376704 51.825541008 52.328679748 52.831830244 53.335035152 53.838229365 
54.34136802 54.844511396 55.347682613 55.850849066 56.353983273 56.857122567 57.360302031 57.863478339 58.366625086 
58.869770571 59.372901717 59.876036905 60.379231529 60.882423573 61.385569699 61.888715982 62.391870025 62.895024652 
63.39819179 63.901358927 
ParallelTransportNormals 3 128 double
0 0.99543860608 0.095404305642 -0.042399004464 0.99399342961 0.006527532547 -0.084798008927 0.99254825315 -0.082349240548 
-0.17909526219 0.95804110246 -0.17630569932 -0.27584669497 0.92197050749 -0.27050236775 -0.37461709409 0.86636367421 -0.30748379647 
-0.4734256018 0.81038808851 -0.34338527017 -0.52656980276 0.77429311405 -0.34539422994 -0.57763156432 0.73910475946 -0.34585758196 
-0.60574367842 0.71785946879 -0.34145597901 -0.63240114036 0.69749795239 -0.33674601328 -0.64581030679 0.68670757136 -0.33331037469 
-0.65814148379 0.676695976 -0.32997842575 -0.66094781226 0.67437057733 -0.32919022097 -0.66279040841 0.67282287461 -0.3286593944 
-0.65311500056 0.68105527688 -0.33073673292 -0.6420387592 0.69047714729 -0.33313127962 -0.61355237899 0.71518584461 -0.33223440577 
-0.58259333062 0.74206564753 -0.33087006921 -0.56703800547 0.75734925894 -0.32321577775 -0.55403448402 0.77071182801 -0.31451948301 
-0.56341124591 0.75195387453 -0.33966255642 -0.57708080636 0.72703483136 -0.3712964141 -0.58157132138 0.69299431763 -0.42121747562 
-0.58429418936 0.65719724429 -0.47466018022 -0.57853292287 0.62198674138 -0.52425455406 -0.57087925444 0.5869070741 -0.57299055057 
-0.55852614284 0.55192422295 -0.61668840428 -0.54501279152 0.51696527462 -0.65914239712 -0.52864313058 0.48216550354 -0.69666034367 
-0.51149377647 0.44740918341 -0.73283088669 -0.4921953524 0.41238141505 -0.76498516403 -0.47225221264 0.37727221289 -0.79593457156 
-0.44928889282 0.33975930117 -0.8246322003 -0.4253341727 0.30145735095 -0.85259066313 -0.39482197824 0.25539099457 -0.88028715057 
-0.36196420385 0.206547344 -0.90788993057 -0.31340296603 0.13754201933 -0.93482797851 -0.25873251076 0.060693071391 -0.96150742155 
-0.16017387934 -0.075387344753 -0.96534366851 -0.043233369726 -0.23627593768 -0.95961239901 0.092298979738 -0.43358251039 -0.84878691523 
0.23649084112 -0.64785146726 -0.68901175198 0.30935189385 -0.77626829173 -0.51260185941 0.34867112778 -0.86431494905 -0.32836983378 
0.36052527889 -0.90217110399 -0.23017998482 0.35919679711 -0.91593692679 -0.1732884795 0.35867953849 -0.92085056515 -0.15291405516 
0.35859838319 -0.92100538114 -0.15217075161 0.36147327466 -0.91541395345 -0.17384527674 0.36603681833 -0.90653996372 -0.20832606583 
0.37196443877 -0.88940533111 -0.25881535607 0.37873037326 -0.86719399537 -0.31914291306 0.38385463705 -0.83367897029 -0.38893070185 
0.38789849642 -0.79272484304 -0.46494438989 0.38772402421 -0.74251085475 -0.53953486327 0.38457962461 -0.68577743702 -0.61312331865 
0.37795536147 -0.62845836165 -0.67594167443 0.36871405724 -0.57069884082 -0.73066034678 0.35878495067 -0.5195429737 -0.77371500953 
0.34830353349 -0.47368989163 -0.80740338231 0.33896618531 -0.43624450053 -0.8329091888 0.33060990432 -0.40600891035 -0.8513982443 
0.32391731288 -0.38307272419 -0.86489524173 0.31874798494 -0.3668198256 -0.87382154278 0.31520614437 -0.35610859553 -0.87965981371 
0.31325582213 -0.35081655774 -0.882478303 0.31279928894 -0.3493291662 -0.88324333415 0.3139030251 -0.3518157447 -0.88186351906 
0.3162678817 -0.35629135671 -0.87919033979 0.32003945154 -0.36298563054 -0.87507448107 0.32468575343 -0.37007502986 -0.87036719625 
0.33037422636 -0.37763518861 -0.86495527604 0.33637849771 -0.38456339924 -0.85958503699 0.34278484485 -0.39068701102 -0.85426786658 
0.3491899724 -0.39602659401 -0.8492199433 0.3555934417 -0.40030014331 -0.84453811183 0.36203914339 -0.40403148359 -0.84002429808 
0.36854622456 -0.40697479084 -0.8357546771 0.375192131 -0.40955023651 -0.83153840104 0.3820539804 -0.41155347275 -0.8274051031 
0.38917932165 -0.41328820278 -0.82321612767 0.39674384319 -0.41457539469 -0.81893435066 0.4046688446 -0.41563340739 -0.81451528618 
0.41323859328 -0.41628151463 -0.80985067199 0.42220012887 -0.41671007328 -0.80500323779 0.4319148004 -0.41671659146 -0.79980436683 
0.44200210697 -0.4165101205 -0.79439885669 0.4528606128 -0.41586285075 -0.78856568951 0.46393665183 -0.4150305931 -0.78257248225 
0.47549843446 -0.41378526432 -0.77622191139 0.48695864949 -0.41243289781 -0.76986036335 0.49817363486 -0.41082209434 -0.76347231149 
0.50887295661 -0.40922997794 -0.75731172857 0.51822241663 -0.40768677898 -0.75174659506 0.52672067783 -0.40627853079 -0.74664531353 
0.53279581274 -0.40525444991 -0.74286448958 0.53786770239 -0.40440762897 -0.73969617065 0.53982283231 -0.40411149753 -0.73843070744 
0.54081485369 -0.40394119587 -0.73779923126 0.5385281503 -0.40419925837 -0.73932604656 0.53547723467 -0.40446914257 -0.74138335098 
0.52956143402 -0.40478334401 -0.74542935725 0.52316844718 -0.40499082574 -0.74982680896 0.51479515813 -0.4047554252 -0.75568274419 
0.50626155391 -0.40434018278 -0.76168566608 0.49698589441 -0.40309250129 -0.76836894921 0.48792091391 -0.40169081339 -0.77494919374 
0.47995032284 -0.39948912639 -0.78099419572 0.47256838632 -0.39733675849 -0.78663502056 0.468658377 -0.39547527825 -0.78989197938 
0.46552817287 -0.39407127594 -0.79245721775 0.46767718494 -0.39576436107 -0.79033956629 0.4703185417 -0.39826967388 -0.78748945633 
0.47684766137 -0.40718868152 -0.7788555429 0.48332251581 -0.41692398328 -0.76972465175 0.48928900144 -0.43430651055 -0.75593796242 
0.49484598271 -0.45208459322 -0.74204686613 0.4957492603 -0.47435786034 -0.72696926465 0.4962773194 -0.49671567654 -0.71195917684 
0.49128772273 -0.52031680215 -0.6979418898 0.48613259756 -0.54367741393 -0.68412999468 0.47803098089 -0.56275675735 -0.67397417984 
0.46987582695 -0.58180735783 -0.66385052554 0.45907246418 -0.59943619545 -0.65531768472 0.44875101586 -0.6162786491 -0.64716547531 
0.44875101586 -0.6162786491 -0.64716547531 0.44875101586 -0.6162786491 -0.64716547531 
FrenetTangent 3 128 double
-0.64929487037 -0.21887388087 -0.7283614457 -0.64929487037 -0.21887388087 -0.7283614457 -0.67253123267 -0.24467503078 -0.69845248256 
-0.70582220149 -0.28393157027 -0.64899759883 -0.74339510359 -0.33277937139 -0.5801910116 -0.77859914778 -0.38596633873 -0.4947861684 
-0.80574615294 -0.43787321492 -0.39879842613 -0.82184103127 -0.48402534323 -0.30049423692 -0.82705479747 -0.52215856213 -0.20816051012 
-0.82377451199 -0.55223495266 -0.12818779371 -0.81512640663 -0.57568594859 -0.064456417954 -0.80384794159 -0.59453738365 -0.018809206375 
-0.7917390345 -0.61080565758 0.0081086316822 -0.77950642037 -0.62618608318 0.01614713067 -0.76676322531 -0.64190847163 0.0052602624927 
-0.75205753099 -0.65863914226 -0.024575401441 -0.73291701735 -0.67637377818 -0.073151608765 -0.70600797069 -0.69432298412 -0.13952898998 
-0.667587148 -0.71088054739 -0.22130577753 -0.61440671566 -0.72385141673 -0.31391641284 -0.54499302111 -0.7310849002 -0.41048444019 
-0.46073411635 -0.73139130747 -0.50278308383 -0.36592833612 -0.72523607596 -0.58320587013 -0.26651400721 -0.71467629744 -0.64669009103 
-0.16823293112 -0.70255954049 -0.69145337728 -0.075314241262 -0.69157016568 -0.71837209788 0.0098735195818 -0.68363088802 -0.72976114075 
0.086500705707 -0.67977554083 -0.72830134011 0.15474311576 -0.68031469551 -0.71639827135 0.21531613896 -0.6850865373 -0.69591335431 
0.26916340237 -0.69369096412 -0.66808974631 0.31726280907 -0.70565759537 -0.63355478695 0.36050441707 -0.72053813464 -0.59233551455 
0.39960441038 -0.73792692557 -0.54385675294 0.43500173499 -0.75741233765 -0.48692919539 0.46673907035 -0.77843633043 -0.41975173576 
0.49429504392 -0.80006239469 -0.33995966548 0.5163460377 -0.82063767718 -0.2448276376 0.53051398837 -0.83736434234 -0.13181754937 
0.53325682936 -0.84595335577 0.00027165707563 0.52027473662 -0.84082675886 0.14941405564 0.48795226639 -0.8165853569 0.30836819002 
0.43573114857 -0.77091835955 0.46456780891 0.36784408296 -0.70723910591 0.60374131687 0.29236760363 -0.63425466301 0.71571097994 
0.21793797594 -0.5623023 0.79769615898 0.15093245336 -0.49962111747 0.8529936304 0.094723751312 -0.45095971676 0.88750365904 
0.050406168441 -0.41812999981 0.90698760821 0.017807247798 -0.4011045605 0.91585917775 -0.0037947865758 -0.39886302844 0.9170026631 
-0.015304837194 -0.40985224895 0.91202351724 -0.017689734871 -0.43216783213 0.90161967489 -0.011969202299 -0.46360822503 0.88595945273 
0.00074344665475 -0.50171844438 0.86503066412 0.019215282698 -0.54388044716 0.83894268702 0.042118031352 -0.587476618 0.80814435266 
0.068101616321 -0.63010433007 0.7735183922 0.095905052642 -0.66977235383 0.73634721085 0.12447534438 -0.70502278454 0.69817530888 
0.15305303536 -0.7349645705 0.66060718167 0.18120968937 -0.75920106296 0.62512142379 0.20883763609 -0.7776942074 0.59294060539 
0.23609784465 -0.79062452869 0.56495191157 0.26334855376 -0.79825302495 0.54170069908 0.29106552013 -0.80082752065 0.52340820127 
0.31976153846 -0.7985243487 0.51001119895 0.34991129924 -0.79142306184 0.50121015537 0.3818875586 -0.7795081342 0.49651682882 
0.41590011345 -0.76269949524 0.49529443324 0.4519529143 -0.74089847937 0.49679775213 0.48982201015 -0.71403955915 0.50022185712 
0.52904902542 -0.68215784601 0.50474528411 0.56896609175 -0.64545021603 0.50957983189 0.60875846212 -0.60430470136 0.51403206389 
0.64753677205 -0.55932335316 0.51754566508 0.68442563325 -0.51130697227 0.51973717652 0.71865611642 -0.46119316668 0.52041737994 
0.74962669182 -0.40999306496 0.5195820528 0.77694218888 -0.35870900993 0.51738639462 0.80041989071 -0.3082611237 0.51410415109 
0.82006697468 -0.25942962098 0.51008472708 0.83603960076 -0.21284302493 0.50570310727 0.84860245998 -0.16895842498 0.5013251595 
0.85808287926 -0.12808483193 0.49728065331 0.86483643264 -0.090415174916 0.49384515886 0.86922234853 -0.056040446141 0.4912351547 
0.87158762046 -0.024997404192 0.4896020319 0.87225823659 0.0027081513735 0.48903807072 0.87153679094 0.027085495138 0.48958145185 
0.86970466035 0.048136216888 0.49121961319 0.86702115507 0.065848526564 0.49390109152 0.86372653836 0.08018868009 0.49754019186 
0.86004076655 0.091103805937 0.50202587227 0.85615600128 0.098526897668 0.50723697806 0.85223845263 0.10236737369 0.51304048637 
0.84841567419 0.10253160368 0.51930541499 0.84476610935 0.098920902692 0.52591337263 0.8413127941 0.091429768226 0.53276015239 
0.83801113328 0.079947965315 0.53976445172 0.83473812365 0.064358216641 0.54687318902 0.83128075685 0.044550985426 0.55406453865 
0.82732970141 0.020410932301 0.56134566802 0.82246906099 -0.0081875878988 0.56875091835 0.81617008987 -0.041356804973 0.57632976592 
0.80778385254 -0.079180842992 0.58413666353 0.79654111349 -0.1217016516 0.59220854648 0.78155481699 -0.16889140956 0.60053955724 
0.76183424659 -0.2206019805 0.60905118579 0.73631446763 -0.27651671395 0.61755931833 0.70390388722 -0.33610506158 0.62574172399 
0.66356614454 -0.39853850005 0.6331248185 0.61443795328 -0.46264049843 0.6390851045 0.55596647428 -0.52690387073 0.64286358622 
0.48808304521 -0.5894946039 0.64363891504 0.41138490422 -0.64834789591 0.64063052257 0.32723331846 -0.70137813628 0.63323539481 
0.23777561058 -0.74673031088 0.62117356819 0.14583198655 -0.78306104813 0.6046060094 0.054635218266 -0.80977907859 0.58418561845 
-0.032510315838 -0.82715922183 0.56102647095 -0.11256478373 -0.83630395861 0.53658630086 -0.18301547132 -0.83895614802 0.51250162826 
-0.24200017369 -0.83722389199 0.49039990887 -0.28829171889 -0.83326660718 0.47175697788 -0.32119395711 -0.82901852492 0.4577802172 
-0.34038389309 -0.82597608244 0.44933541655 -0.34038389309 -0.82597608244 0.44933541655 
FrenetNormal 3 128 double
-0.52256716297 -0.56743015036 0.63635413462 -0.52256716297 -0.56743015036 0.63635413462 -0.49147507651 -0.55794786441 0.66869008499 
-0.44092009679 -0.54097224758 0.71619724629 -0.37192650818 -0.51529338646 0.7721032304 -0.28779460752 -0.4810371226 0.82811687011 
-0.19430485383 -0.44064508895 0.87640032483 -0.098302018772 -0.39905810939 0.91164101401 -0.0052448952701 -0.36312806196 0.93172447735 
0.083395543195 -0.34169539983 0.93610332609 0.17297072844 -0.34807401689 0.92137158946 0.28265903864 -0.4096114781 0.86736515083 
0.46057334061 -0.58817977058 0.66476819674 0.62373535441 -0.77831229421 -0.072001252364 0.45615047299 -0.55060332659 -0.69911567193 
0.35556282489 -0.37403441402 -0.85654733359 0.3458185797 -0.27779797298 -0.89623534641 0.38418362996 -0.20997643447 -0.89906219776 
0.45115034029 -0.14978595914 -0.87978834779 0.53519977532 -0.090028771793 -0.83991429369 0.62699412665 -0.030328387262 -0.77843339733 
0.7181010034 0.025722999673 -0.6954633536 0.80183274826 0.072407488965 -0.59314534421 0.87383479587 0.1039334451 -0.47498482978 
0.93167419348 0.11580418834 -0.344343705 0.97334428508 0.10552296524 -0.20363154597 0.99578683173 0.073257389426 -0.055153790957 
0.99498015994 0.022022499706 0.097619110985 0.96767592102 -0.041795278944 0.24870960282 0.9140567131 -0.10943602427 0.3905433162 
0.83879656105 -0.17202359015 0.51655417296 0.74940263999 -0.22284842547 0.62348557516 0.65329535323 -0.25821618403 0.71170891786 
0.55576855919 -0.27678376998 0.78390819188 0.45924665494 -0.27852539733 0.84351414509 0.36435704096 -0.26321834525 0.89328609606 
0.26985806441 -0.23052933231 0.93489724142 0.17380567918 -0.17951619196 0.96827967174 0.073974450025 -0.10917798562 0.99126583125 
-0.03097661537 -0.019205568493 0.99933557699 -0.14066456082 0.088194347053 0.98612131022 -0.2514642574 0.20679376182 0.94551682551 
-0.35723336902 0.32562708219 0.87541494356 -0.45129214224 0.43189727945 0.78089701136 -0.53039128101 0.51520767132 0.67323557871 
-0.59646775056 0.57019345625 0.56489436622 -0.65617253568 0.5947387224 0.46446039173 -0.7202757478 0.58435923112 0.37380093117 
-0.80546918909 0.51991188562 0.28444861861 -0.93281876935 0.32306257344 0.15962367366 -0.95240729756 -0.27806921335 -0.12489136137 
-0.33610206887 -0.85694610057 -0.39074132109 0.063311615819 -0.9004352703 -0.43035794787 0.23210926822 -0.86311003372 -0.44851572691 
0.32002386257 -0.81941908516 -0.47553873687 0.37439011548 -0.77413356873 -0.51044026017 0.41238908943 -0.72652349404 -0.54963519859 
0.44203156213 -0.67601017566 -0.58959167267 0.4682814403 -0.62242232968 -0.62713868975 0.49548648248 -0.56546527663 -0.65934980595 
0.52770205828 -0.50441060373 -0.68344749654 0.56984039196 -0.43700586562 -0.69592226656 0.6265409502 -0.35913765036 -0.69171279142 
0.70052206993 -0.26444115253 -0.66282705617 0.78790233437 -0.14603269132 -0.5982343726 0.87161191385 -0.0035836313165 -0.49018346487 
0.92582686903 0.14885769656 -0.34739889861 0.93667580319 0.28749442219 -0.199963489 0.91394224533 0.39837252745 -0.07751710507 
0.87574587548 0.48270691079 0.0079498334369 0.83390601997 0.54867518589 0.059634639624 0.79279062177 0.60351333846 0.085174411211 
0.75283474971 0.65177829017 0.091787254513 0.71314082072 0.69583432761 0.085116146152 0.67257286358 0.73674889718 0.069619003762 
0.63051360155 0.77467224038 0.048327199896 0.58658594134 0.80953291844 0.023945508776 0.54087453732 0.84110190633 -0.0015225140614 
0.49366238663 0.86925535028 -0.026316991511 0.44540763537 0.89398348283 -0.049046618554 0.39653856648 0.91546177287 -0.068460994056 
0.34736437184 0.93401230788 -0.083420632383 0.29823645532 0.94992692797 -0.093240807789 0.24910025037 0.96361845649 -0.096894455875 
0.20000498372 0.97528359513 -0.093914405516 0.15064628668 0.98505776637 -0.083467917374 0.10067084988 0.99280248728 -0.064873732955 
0.049688137634 0.99806064893 -0.037497067006 -0.0030404854677 0.99999537115 -0.00011461346016 -0.058303164405 0.99711399794 0.048625262198 
-0.11740203611 0.98684397727 0.11115631533 -0.18254003774 0.96429350121 0.19187802935 -0.25695881362 0.91936101276 0.29790518008 
-0.34487391952 0.82892604244 0.4403902767 -0.44498002738 0.6395816068 0.62683980688 -0.52017016546 0.27039148981 0.81013050875 
-0.48952570735 -0.22126393516 0.84344937776 -0.37729374693 -0.5868457495 0.7164227068 -0.27580856094 -0.77503358716 0.56855305511 
-0.20896994804 -0.86676797146 0.45281877662 -0.17138409959 -0.91345236743 0.36909654948 -0.15540369486 -0.93840727234 0.30861218841 
-0.15584915292 -0.95176428902 0.26430243979 -0.16961344609 -0.95793784313 0.2314872947 -0.1946335095 -0.95882252569 0.20682640354 
-0.22950215694 -0.95499471494 0.18791980844 -0.27278363783 -0.94650405922 0.1723924384 -0.3233822444 -0.93290058548 0.15849423211 
-0.38000868376 -0.91364070773 0.14440933988 -0.44139898205 -0.88804025877 0.12865239 -0.50602536299 -0.85551253433 0.10971160204 
-0.57254944585 -0.81525242039 0.086894321535 -0.63912096026 -0.76681135637 0.059369536761 -0.70377234526 -0.70992076237 0.026776803438 
-0.76454281107 -0.64448734277 -0.01050500097 -0.81920730466 -0.57113882262 -0.051959958473 -0.8658630615 -0.49092401303 -0.096305618517 
-0.90284589513 -0.40577119688 -0.14219361952 -0.92928189292 -0.31806571782 -0.18780139147 -0.94502757808 -0.23083731138 -0.23159665874 
-0.95104146552 -0.14701147052 -0.27185981387 -0.94894503673 -0.069668390478 -0.30765180421 -0.94119448785 -0.0010757023251 -0.33786355073 
-0.93021449941 0.056460103334 -0.3626475449 -0.91884116686 0.10208346794 -0.3811953248 -0.90902176416 0.13434969173 -0.39449916681 
-0.90274641716 0.15338656408 -0.40189733548 -0.90274641716 0.15338656408 -0.40189733548 
FrenetBinormal 3 128 double
-0.5525755437 0.79379924965 0.25405318295 -0.5525755437 0.79379924965 0.25405318295 -0.55331183817 0.79298695444 0.25498568554 
-0.55444069847 0.79166400117 0.25663908729 -0.55590861882 0.78976617796 0.25929711081 -0.55763575115 0.78716788047 0.26345606274 
-0.55948079574 0.78364466006 0.26996719421 -0.56117201678 0.77876318123 0.28038165978 -0.56209683601 0.77167897899 0.29758813877 
-0.56075015539 0.76044776993 0.32753389509 -0.55285628179 0.73988523932 0.38330114051 -0.52338547427 0.69191309891 0.49731670882 
-0.40127484243 0.53005754984 0.74700568585 0.057653692519 -0.046053902221 0.99727382891 0.45166459049 -0.53365671625 0.71498923551 
0.55496355523 -0.65291097204 0.51548299192 0.58586871875 -0.68216332238 0.4375054811 0.59494174823 -0.68834983162 0.41499256079 
0.59227592412 -0.68717757078 0.42070918213 0.57971164233 -0.68405697624 0.44271939759 0.55665157153 -0.68161210202 0.47491469791 
0.52158894059 -0.68147273067 0.51336136825 0.47239887451 -0.68468225453 0.55502208397 0.40667312856 -0.69169041403 0.59680929755 