# vtk DataFile Version 4.2
vtk output
ASCII
DATASET POLYDATA
POINTS 128 float
0 0 0 -0.262458 0.192549 0.0783911 -0.788852 0.552691 0.244151 
-1.25238 0.808439 0.41015 -1.65699 0.965414 0.576185 -2.0908 1.09902 0.764396 
-2.54765 1.20177 0.973179 -3.00018 1.24805 1.19531 -3.4438 1.23472 1.428 
-3.87927 1.16459 1.66925 -4.30047 1.03709 1.91448 -4.69989 0.851655 2.15841 
-5.07371 0.613144 2.39647 -5.41995 0.328391 2.62453 -5.74004 0.0053658 2.83967 
-6.03688 -0.347829 3.03949 -6.31517 -0.724563 3.22215 -6.58031 -1.11896 3.38585 
-6.83791 -1.52655 3.52774 -7.09355 -1.94345 3.64423 -7.35204 -2.3661 3.72941 
-7.61738 -2.791 3.77589 -7.88982 -3.21392 3.77257 -8.16646 -3.6302 3.70686 
-8.43305 -4.0341 3.56651 -8.66962 -4.41938 3.3416 -8.85154 -4.7799 3.03835 
-8.95428 -5.11015 2.67158 -8.9717 -5.40935 2.26479 -8.90755 -5.6794 1.8443 
-8.77448 -5.92522 1.42529 -8.58903 -6.15316 1.01678 -8.36305 -6.3684 0.622537 
-8.10569 -6.5755 0.24357 -7.8236 -6.77822 -0.119729 -7.52192 -6.9799 -0.467262 
-7.20386 -7.18366 -0.79877 -6.87154 -7.39253 -1.11359 -6.52689 -7.61003 -1.40775 
-6.17143 -7.84015 -1.6753 -5.80335 -8.0892 -1.9103 -5.42016 -8.3651 -2.10353 
-5.03677 -8.67747 -2.20526 -4.68129 -9.03349 -2.14378 -4.40174 -9.39542 -1.90963 
-4.25432 -9.69871 -1.53789 -4.23242 -9.92644 -1.08185 -4.29019 -10.0926 -0.603116 
-4.40377 -10.2058 -0.127361 -4.56465 -10.2703 0.343846 -4.76563 -10.2863 0.805573 
-5.00013 -10.251 1.25028 -5.26083 -10.1611 1.67148 -5.53971 -10.0129 2.06355 
-5.82621 -9.80521 2.42207 -6.1079 -9.53962 2.74395 -6.37226 -9.22323 3.03296 
-6.6071 -8.86748 3.29844 -6.80478 -8.48094 3.55158 -6.96037 -8.07094 3.80613 
-7.04786 -7.66788 4.09665 -7.02472 -7.32328 4.47254 -6.88605 -7.10558 4.91839 
-6.66221 -7.09281 5.36131 -6.39408 -7.27192 5.75912 -6.12884 -7.55409 6.09841 
-5.88527 -7.8901 6.38028 -5.65722 -8.26779 6.61735 -5.44221 -8.67776 6.81531 
-5.24183 -9.11208 6.97317 -5.05648 -9.56472 7.09011 -4.88527 -10.0313 7.16581 
-4.72705 -10.5075 7.20082 -4.58045 -10.9884 7.19668 -4.44318 -11.4705 7.15769 
-4.312 -11.951 7.09106 -4.18301 -12.4292 7.00631 -4.05163 -12.9057 6.91536 
-3.91332 -13.3814 6.83121 -3.7636 -13.8571 6.76788 -3.59878 -14.3313 6.73779 
-3.41614 -14.7997 6.75115 -3.21382 -15.2563 6.81337 -2.99102 -15.6937 6.92388 
-2.74705 -16.1056 7.07896 -2.48127 -16.4871 7.27123 -2.19268 -16.8346 7.49266 
-1.87979 -17.1454 7.73479 -1.5413 -17.4167 7.98952 -1.17632 -17.6455 8.24946 
-0.784947 -17.8287 8.50742 -0.368797 -17.9626 8.75648 0.0686706 -18.0453 8.99123 
0.521272 -18.0769 9.20875 0.982717 -18.0601 9.40826 1.44697 -18.0002 9.59235 
1.90926 -17.9035 9.76455 2.36704 -17.7774 9.92954 2.81881 -17.6287 10.0918 
3.26464 -17.4641 10.2551 3.70516 -17.2898 10.4225 4.14176 -17.1112 10.5956 
4.57599 -16.9334 10.7754 5.00954 -16.7606 10.9615 5.44395 -16.5966 11.1536 
5.88044 -16.4445 11.3506 6.31987 -16.3072 11.5521 6.76235 -16.1871 11.7578 
7.20753 -16.0865 11.9682 7.6542 -16.0075 12.1847 8.10064 -15.9525 12.409 
8.54406 -15.9238 12.644 8.98086 -15.9241 12.8931 9.40575 -15.957 13.16 
9.81198 -16.0263 13.4487 10.1895 -16.1374 13.7626 10.5258 -16.295 14.1038 
10.8033 -16.503 14.4693 11.0058 -16.762 14.8526 11.1257 -17.0628 15.2389 
11.1589 -17.3956 15.6136 11.1083 -17.7549 15.9681 10.9846 -18.1308 16.2944 
10.8216 -18.4946 16.5825 10.6334 -18.8391 16.8315 10.3478 -19.2483 17.0743 
9.96277 -19.7272 17.3124 9.75964 -19.9687 17.4241 
LINES 1 129
128 0 1 2 3 4 5 6 7 8 9 10 11 12 13 14 15 16 17 18 19 20 21 22 23 24 25 26 27 28 29 30 31 32 33 34 35 36 37 38 39 40 41 42 43 44 45 46 47 48 49 50 51 52 53 54 55 56 57 58 59 60 61 62 63 64 65 66 67 68 69 70 71 72 73 74 75 76 77 78 79 80 81 82 83 84 85 86 87 88 89 90 91 92 93 94 95 96 97 98 99 100 101 102 103 104 105 106 107 108 109 110 111 112 113 114 115 116 117 118 119 120 121 122 123 124 125 126 127 

CELL_DATA 1
FIELD FieldData 2
Length 1 1 double
55.205494292 
Tortuosity 1 1 double
0.95474468875 
POINT_DATA 128
SCALARS MaximumInscribedSphereRadius float
LOOKUP_TABLE default
0.93 1.02798 1.12596 1.1823 1.23494 1.22098 1.20471 1.107 1.00461 
0.966298 0.932983 0.936394 0.943393 0.960765 0.979365 1.06028 1.14999 1.14252 
1.11893 1.04055 0.951661 0.933374 0.930556 0.93 0.93 0.93 0.93 
0.93 0.93 0.93 0.93 0.936371 0.944897 1.01165 1.10004 1.16412 
1.21828 1.23298 1.23006 1.17442 1.09309 1.07097 1.08004 1.24598 1.49898 
1.68504 1.8371 1.84387 1.77233 1.7004 1.62825 1.58514 1.56002 1.55 
1.55 1.55029 1.55079 1.6058 1.70219 1.64906 1.47419 1.40182 1.41788 
1.54619 1.76238 1.80939 1.7179 1.51996 1.22909 1.08731 1.0851 1.14769 
1.27544 1.43724 1.63585 1.73439 1.71633 1.65821 1.54965 1.43967 1.32776 
1.21544 1.10254 1.05992 1.12798 1.23244 1.39862 1.51377 1.53554 1.55 
1.55 1.5622 1.60052 1.65817 1.76065 1.86461 1.97233 2.02865 1.94258 
1.81769 1.57389 1.39357 1.42975 1.49396 1.66518 1.83143 1.97623 2.08443 
2.01296 1.94615 1.90561 1.87323 1.89478 1.9237 2.01039 2.08402 2.03427 
1.97875 1.85763 1.74297 1.71637 1.70046 1.87542 2.04898 2.18154 2.3102 
2.3951 2.48 
TEXTURE_COORDINATES TCoords 2 float
0 0 0.00787402 0 0.015748 0 0.023622 0 0.0314961 
0 0.0393701 0 0.0472441 0 0.0551181 0 0.0629921 0 
0.0708661 0 0.0787402 0 0.0866142 0 0.0944882 0 0.102362 
0 0.110236 0 0.11811 0 0.125984 0 0.133858 0 
0.141732 0 0.149606 0 0.15748 0 0.165354 0 0.173228 
0 0.181102 0 0.188976 0 0.19685 0 0.204724 0 
0.212598 0 0.220472 0 0.228346 0 0.23622 0 0.244094 
0 0.251969 0 0.259843 0 0.267717 0 0.275591 0 
0.283465 0 0.291339 0 0.299213 0 0.307087 0 0.314961 
0 0.322835 0 0.330709 0 0.338583 0 0.346457 0 
0.354331 0 0.362205 0 0.370079 0 0.377953 0 0.385827 
0 0.393701 0 0.401575 0 0.409449 0 0.417323 0 
0.425197 0 0.433071 0 0.440945 0 0.448819 0 0.456693 
0 0.464567 0 0.472441 0 0.480315 0 0.488189 0 
0.496063 0 0.503937 0 0.511811 0 0.519685 0 0.527559 
0 0.535433 0 0.543307 0 0.551181 0 0.559055 0 
0.566929 0 0.574803 0 0.582677 0 0.590551 0 0.598425 
0 0.606299 0 0.614173 0 0.622047 0 0.629921 0 
0.637795 0 0.645669 0 0.653543 0 0.661417 0 0.669291 
0 0.677165 0 0.685039 0 0.692913 0 0.700787 0 
0.708661 0 0.716535 0 0.724409 0 0.732283 0 0.740157 
0 0.748031 0 0.755906 0 0.76378 0 0.771654 0 
0.779528 0 0.787402 0 0.795276 0 0.80315 0 0.811024 
0 0.818898 0 0.826772 0 0.834646 0 0.84252 0 
0.850394 0 0.858268 0 0.866142 0 0.874016 0 0.88189 
0 0.889764 0 0.897638 0 0.905512 0 0.913386 0 
0.92126 0 0.929134 0 0.937008 0 0.944882 0 0.952756 
0 0.96063 0 0.968504 0 0.976378 0 0.984252 0 
0.992126 0 1 0 
FIELD FieldData 7
Curvature 1 128 double
0 0.038130092197 0.071629100949 0.10364617721 0.13336160671 0.15977934182 0.18179022834 0.19833928122 0.20864725644 
0.21244195887 0.21011794605 0.2027672137 0.19207022688 0.18010333233 0.16914746147 0.16144147107 0.15888531642 0.16269574744 
0.17316432287 0.18978051521 0.21147307126 0.23675392739 0.26351738215 0.28885397079 0.30905856342 0.32036802299 0.32007875351 
0.30775591846 0.28551885316 0.25711825181 0.22675836598 0.19808465601 0.1740587568 0.15707356468 0.14940187676 0.1530667626 
0.16972799282 0.20107375521 0.24982558039 0.3204335443 0.41832785577 0.54582283035 0.6922114444 0.82190119159 0.8821479778 
0.8455702674 0.73874674991 0.611596738 0.49711459208 0.40515182443 0.33327033837 0.27577272471 0.22770516797 0.18607381841 
0.15088247219 0.12710038892 0.12682024525 0.16090002708 0.22879494693 0.32691962538 0.44982023016 0.57914473798 0.67672801159 
0.70239141924 0.65021666372 0.5533997285 0.45049980884 0.36192679372 0.29179281922 0.23700789904 0.19297698947 0.15572628899 
0.12241260008 0.091248579444 0.06134379799 0.033105418217 0.015860471678 0.034273362241 0.061275143458 0.088108758885 0.11324617076 
0.13575669293 0.15495597834 0.17053203199 0.18253472037 0.19142007688 0.19768096331 0.20171044556 0.20354990257 0.20289588149 
0.19923652543 0.19209694466 0.18129644521 0.16701511311 0.14991403486 0.13073202811 0.11040337129 0.089728184187 0.069330891229 
0.049776484036 0.031604925574 0.016528222892 0.014047936701 0.026051151319 0.040593834811 0.055422595198 0.07050487422 0.086154375584 
0.10291631174 0.12138237898 0.14213670569 0.16571665844 0.19234783236 0.22181986622 0.25304247476 0.28395056943 0.311005501 
0.32982825316 0.33619552338 0.32751705646 0.30412169335 0.26892652555 0.22612911718 0.17966591819 0.13234939224 0.085656080865 
0.039980767642 0 
Torsion 1 128 double
0 0 -0.010541454423 -0.015025422193 -0.020308072164 -0.026583762443 -0.034189315977 -0.043656851609 -0.055707980174 
-0.071384905847 -0.091940208337 -0.11877771778 -0.15296873371 -0.1937591965 -0.23636741754 -0.26976431018 -0.27858968546 -0.25290918802 
-0.19726722413 -0.12679460875 -0.056028741148 0.0065810618658 0.058103695844 0.098463249946 0.12927137524 0.15284597083 0.17173007382 
0.18896992766 0.2077401765 0.23183440063 0.26552737357 0.31286114293 0.37434370095 0.4401657322 0.48415359788 0.47695082978 
0.41688598507 0.33186948357 0.2493920126 0.18108295913 0.12741118494 0.084955550315 0.050199562139 0.020422930075 -0.0074557072034 
-0.036810508439 -0.069905247601 -0.10637505376 -0.14441752676 -0.18347937003 -0.22566917771 -0.27860721348 -0.3577349096 -0.49365782324 
-0.73960154441 -1.1106981369 -1.294171942 -1.0131138351 -0.67611676754 -0.46525333855 -0.34271495943 -0.26753657967 -0.21903741027 
-0.18614589109 -0.16044387744 -0.1354764361 -0.10821022033 -0.079036985329 -0.05014266765 -0.023265185385 0.0014085503814 0.025989640051 
0.056708756424 0.11070588483 0.25199923959 0.87972203671 3.8219005959 0.7689477076 0.1953106325 0.04960727805 -0.015419694179 
-0.056365491443 -0.087747400087 -0.11347420697 -0.13380285393 -0.14736083139 -0.1527167778 -0.14888410275 -0.1365818214 -0.11761777002 
-0.094545037304 -0.069761266598 -0.044727065193 -0.020610228981 0.0025800537498 0.025434100402 0.049773234062 0.079637370913 0.12516811743 
0.21849188243 0.48817412071 1.6436517717 2.133786944 0.57247343085 0.19859465731 0.070194255943 0.0073513450654 -0.030019656776 
-0.053052380417 -0.065681641768 -0.070341276784 -0.068740033791 -0.062429736048 -0.053513884027 -0.042950057279 -0.031944558538 -0.021717386092 
-0.012460212756 -0.0047328562815 0.0011773116369 0.0054864671342 0.0079998393534 0.0089557187459 0.0087307285503 0.0073706994269 0.0056309569139 
0 0 
Abscissas 1 128 double
0 0.50244866824 1.0048973365 1.5073441031 2.0097907007 2.5122423108 3.0146940942 3.517141063 4.0195877559 
4.5220368681 5.024486169 5.5269326788 6.029378916 6.5318279954 7.0342774114 7.536725434 8.0391732599 8.5416238261 
9.0440748467 9.546521307 10.048966892 10.551417275 11.053868711 11.556317223 12.058765017 12.561213154 13.063661383 
13.566110118 14.068559 14.571006643 15.073453903 15.575901635 16.078349526 16.580799337 17.083249861 17.58569741 
18.088143745 18.590591073 19.093038845 19.595488039 20.097937927 20.600387771 21.102837593 21.605284946 22.107730929 
22.610178705 23.112627393 23.61507426 24.117520144 24.619968314 25.122417803 25.624864752 26.127310129 26.629757735 
27.132206818 27.634654917 28.137102319 28.639551856 29.142003012 29.644453758 30.14690417 30.649351786 31.15179699 
31.654243102 32.156689926 32.659139167 33.161590387 33.664040329 34.166489156 34.668936569 35.171382656 35.673825723 
36.17626575 36.678702877 37.181136867 37.683585121 38.186049993 38.688500064 39.190931504 39.693370876 40.195821044 
40.698277645 41.200743674 41.70319725 42.205631214 42.708073301 43.210529157 43.712984248 44.21543794 44.717890053 
45.220339043 45.722787681 46.225235567 46.727683713 47.23013246 47.732580716 48.23502773 48.737475375 49.239924764 
49.742372428 50.244814805 50.747260713 51.249718657 51.752172473 52.254610527 52.75705286 53.259513644 53.761972306 
54.264420541 54.766867925 55.269310489 55.771752408 56.274190064 56.776627884 57.279066984 57.781509167 58.283980482 
58.786451347 59.288917097 59.79138066 60.293814351 60.796247193 61.298664858 61.801083954 62.303544734 62.806005289 
63.308463309 63.810921329 
ParallelTransportNormals 3 128 double
0.29671732377 0 0.95496535528 0.3212307404 -0.014141194227 0.94639585537 0.34574415703 -0.028282388454 0.93782635546 
0.37098640228 -0.037839805942 0.92743970063 0.39629346475 -0.046989572432 0.91689143998 0.423437693 -0.05110346198 0.90396144887 
0.45064543874 -0.055043242972 0.89094911269 0.47632852175 -0.052745593668 0.87719110593 0.50192422978 -0.050090491365 0.86339036648 
0.52225823493 -0.042595618998 0.85136694652 0.54218167931 -0.034723108493 0.83948220744 0.55391835889 -0.026695152483 0.83200123443 
0.56485530036 -0.018652011514 0.82495045084 0.5664845436 -0.017282495938 0.82389067075 0.56701173522 -0.016703152046 0.82354023843 
0.55867601512 -0.028505101465 0.8287082823 0.54908939046 -0.042054537119 0.83465519967 0.52895862482 -0.073825152658 0.84437184263 
0.50707956892 -0.10861696371 0.85471353172 0.46965881611 -0.16843095953 0.86327088763 0.42925420636 -0.23304897512 0.87148566867 
0.37011881929 -0.32458054522 0.86270346708 0.30687980651 -0.42200846186 0.85019748757 0.24354718465 -0.52583293136 0.80411196817 
0.18019157529 -0.63122819672 0.74978035069 0.14806947579 -0.70676207261 0.68499608159 0.12435560375 -0.77425710317 0.61739790292 
0.12135546055 -0.80679789741 0.57691886589 0.12433800217 -0.82924296331 0.54427257006 0.12605443186 -0.83599312621 0.53405102621 
0.12737821932 -0.83787604028 0.53078376857 0.12342394702 -0.83467424842 0.5366150662 0.11768348817 -0.82975170427 0.54552547202 
0.10692489561 -0.82207633794 0.55886095456 0.094300938383 -0.81337767937 0.57384134779 0.074943691439 -0.80082993278 0.59329144602 
0.05283924171 -0.7867117465 0.61456519755 0.016765055899 -0.76325869213 0.64332409818 -0.025549353 -0.73563579095 0.67542658384 
-0.10631944076 -0.67702038235 0.71729024787 -0.20583087392 -0.60330079919 0.76391101466 -0.38448208625 -0.43454503397 0.7594539417 
-0.60481073808 -0.21574029502 0.72809770881 -0.76099479081 0.0018357850436 0.56646028845 -0.88158132346 0.21873001176 0.33252235877 
-0.91472989492 0.33653458863 0.14052279809 -0.90343841074 0.40397717748 -0.030161724738 -0.87507680603 0.43919816621 -0.16614499634 
-0.83751436437 0.45705163323 -0.28342420821 -0.79144326221 0.45912958135 -0.38958180762 -0.74046464323 0.45210872662 -0.48932482507 
-0.68565205001 0.43076978634 -0.57860408209 -0.6284660462 0.40056727686 -0.66140577867 -0.57987034911 0.36441355256 -0.72512168392 
-0.53696964073 0.32431443931 -0.77618456412 -0.51423359643 0.30027387503 -0.80319481602 -0.50578319164 0.28760997642 -0.8131650034 
-0.515963831 0.3200556771 -0.79081338306 -0.5402842144 0.3867366135 -0.74393162449 -0.54332237645 0.52584826921 -0.59308091888 
-0.52903282604 0.72393209025 -0.35758002622 -0.43138220837 0.82890422953 -0.054199136586 -0.26181184275 0.85354427968 0.30774521 
-0.12891293591 0.80758848253 0.54575309654 -0.024718009007 0.70637494948 0.68675176173 0.051412307284 0.61378448809 0.7809791251 
0.10456722392 0.52825339838 0.83691665196 0.14960557603 0.44488659484 0.87896773554 0.18756021197 0.36340866792 0.90889945231 
0.2216206476 0.28163604623 0.93031601656 0.25203520307 0.19958752147 0.9437604111 0.27843705844 0.12234818026 0.95034363182 
0.30080384891 0.049944826608 0.95002743794 0.31809854235 -0.0080665407989 0.94725454777 0.32991039026 -0.050520430277 0.94182601313 
0.33560744758 -0.071029203087 0.93930935634 0.33418027083 -0.065970109597 0.94018527679 0.32518146602 -0.03771448549 0.94353680594 
0.3066508149 0.019743017438 0.95000485398 0.2803015601 0.092021181259 0.95197455774 0.24330834373 0.18447565163 0.94782037983 
0.2018160728 0.27669372984 0.93557689397 0.15372796477 0.3685652454 0.91147408148 0.10531659769 0.45121056732 0.88323451147 
0.056396238402 0.51932865299 0.84848135022 0.0090734498514 0.57799773061 0.81413561704 -0.035541205882 0.62064925845 0.78048053828 
-0.078808017536 0.65680209422 0.74873611357 -0.11960865032 0.68106413539 0.72048765306 -0.15979527037 0.70105445541 0.69409196918 
-0.198767316 0.71259491292 0.67136125013 -0.2376508882 0.72110759107 0.65002405708 -0.27634518917 0.72314293936 0.63166803484 
-0.31447533132 0.72301869002 0.61442895726 -0.35129843447 0.71789110083 0.59977760883 -0.38646978306 0.71175448606 0.58606577323 
-0.4174719509 0.70307099773 0.57472535462 -0.44587873356 0.69461902063 0.56429583574 -0.46709385391 0.68680854779 0.55639036737 
-0.48525383437 0.68004868444 0.54956146297 -0.49405375049 0.67650758446 0.54603083897 -0.49994216382 0.67412422037 0.54369615652 
-0.49590397794 0.67568808936 0.54543896715 -0.48968998839 0.67793286244 0.54818461922 -0.47516825629 0.68277749135 0.55475936151 
-0.45952999411 0.68768757311 0.56190108934 -0.4390783574 0.69287982288 0.57148709859 -0.41853187989 0.69774720686 0.58120954574 
-0.397519812 0.70101976671 0.59160179086 -0.3771441259 0.70389514555 0.60182287282 -0.3603677083 0.7045241353 0.61107588462 
-0.34449125301 0.70491497453 0.6199877973 -0.33456247577 0.70373192273 0.6266454514 -0.32536711122 0.70253710045 0.63290820806 
-0.32192464518 0.70124995039 0.63607338408 -0.31874626606 0.70002393456 0.63903594931 -0.31806357239 0.69937565208 0.64008379356 
-0.31736836035 0.69852281357 0.64135732109 -0.3165308286 0.69534440497 0.64519661153 -0.31586319067 0.69182758069 0.64929811421 
-0.31751594177 0.68368871656 0.65698087966 -0.31936943388 0.67540569085 0.66468645856 -0.3248129418 0.66454450564 0.67280002922 
-0.33042448252 0.65355634585 0.6809247126 -0.34093280718 0.63886791415 0.6893732409 -0.35058156985 0.62538096966 0.69713069482 
-0.35058156985 0.62538096966 0.69713069482 -0.35058156985 0.62538096966 0.69713069482 
FrenetTangent 3 128 double
-0.87546957395 0.32705380612 0.35579324473 -0.87546957395 0.32705380612 0.35579324473 -0.8806134859 0.30276066162 0.36449399203 
-0.88760365833 0.26376586291 0.37760735597 -0.8947121466 0.21072071056 0.39381081355 -0.89988248535 0.14476280179 0.41140642165 
-0.90102727714 0.067668308066 0.42845168448 -0.89636798875 -0.018088488005 0.44294157103 -0.88475941139 -0.10942560406 0.45301966969 
-0.86591988377 -0.20290763878 0.4571774765 -0.84049825285 -0.29512109299 0.45438554933 -0.80994607029 -0.38307387597 0.444119093 
-0.7762278455 -0.46450730023 0.42626670043 -0.74145076377 -0.53804022378 0.40095321736 -0.70749885262 -0.60313446771 0.36833977167 
-0.67574079818 -0.65991990541 0.3284510498 -0.64683786502 -0.70894191462 0.28107318989 -0.62063748775 -0.75089895536 0.2257429238 
-0.59613836174 -0.78640295046 0.16183155804 -0.57151495156 -0.81578090989 0.088725234348 -0.54420949215 -0.83892714709 0.0061049595206 
-0.51112321851 -0.85522606965 -0.085682117714 -0.46896860033 -0.86358051883 -0.18519486872 -0.41482622286 -0.86261241306 -0.28951516309 
-0.34688778921 -0.85108162391 -0.39411791526 -0.26518691442 -0.82848589938 -0.49324133539 -0.17197249124 -0.79562964315 -0.58086051097 
-0.071417669167 -0.75483811469 -0.65201145476 0.031365158984 -0.70962906506 -0.70387698984 0.13153499577 -0.66397283401 -0.73609688261 
0.22543262938 -0.62152766228 -0.75025561953 0.31091963708 -0.58516211547 -0.74894210584 0.38723496861 -0.55683991123 -0.73483222054 
0.45460037787 -0.537750935 -0.71004396227 0.51378566463 -0.52852684751 -0.67578373929 0.56572902135 -0.52942932489 -0.63218293583 
0.61119261507 -0.54046234542 -0.57822490475 0.65042176346 -0.56136871724 -0.51168026436 0.68272511848 -0.59145056476 -0.42903687726 
0.70588041638 -0.62910756771 -0.32550960973 0.71531280437 -0.67091331273 -0.19545566944 0.70326993871 -0.71011051906 -0.033977110302 
0.65906648377 -0.735065252 0.15909256828 0.57275425354 -0.73002604862 0.37284652793 0.44337076316 -0.68170384765 0.58198129736 
0.28530587381 -0.58937936088 0.75579926392 0.12243512498 -0.46683784319 0.87582650584 -0.025299651261 -0.33237759748 0.94280701119 
-0.14826090274 -0.19923933268 0.96867042539 -0.24459519265 -0.073945556663 0.96680155481 -0.31583036528 0.04110562892 0.94792484282 
-0.36426243468 0.14507170871 0.91992775695 -0.39202977526 0.23732976449 0.88881226263 -0.4009777811 0.31700578442 0.85949063503 
-0.39269751912 0.38290162337 0.83616685254 -0.36848210524 0.43347742327 0.82238571342 -0.3291675141 0.46666926984 0.82089496298 
-0.27495095708 0.47949241551 0.83336006304 -0.20536826576 0.46750563498 0.85980367333 -0.11971031445 0.42448393745 0.89748695114 
-0.018324078293 0.34308275601 0.93912642955 0.094866574092 0.21799555302 0.97132809698 0.20970507775 0.052373461441 0.97636099927 
0.31086682041 -0.13688382517 0.9405448625 0.38511019254 -0.32379443939 0.86420327506 0.42848179653 -0.48683880419 0.76117759346 
0.44575033446 -0.61721120876 0.64834941437 0.44492065661 -0.71625302505 0.53761251234 0.43321889111 -0.78941043114 0.43491673179 
0.41593681319 -0.84242763141 0.34250876379 0.39669960067 -0.8800506651 0.26103688184 0.37800827483 -0.9059439623 0.19072304875 
0.36166037947 -0.92294282525 0.13182682289 0.3489986547 -0.93328541527 0.084724687404 0.34103939509 -0.93872704907 0.049836315384 
0.33853822722 -0.94055061493 0.027502899115 0.34202072931 -0.93952239324 0.017874376277 0.35179217099 -0.93584662121 0.020817540668 
0.36794533051 -0.92915701717 0.03582556635 0.39035360261 -0.91857986943 0.061928090623 0.41865913595 -0.90288186631 0.097615897167 
0.45227788639 -0.88068988616 0.14081916738 0.49042048609 -0.85075093317 0.18897247561 0.53214282794 -0.81216517668 0.23918974991 
0.57639849915 -0.76453770025 0.28852534563 0.6220825606 -0.70801159069 0.33426467844 0.66804228831 -0.64321064933 0.37416515286 
0.71306286197 -0.57115538089 0.40659917088 0.75586012724 -0.49318924264 0.43062726225 0.79511562201 -0.41095102462 0.44599372529 
0.82957781977 -0.32635406164 0.45309344223 0.85822007759 -0.24153848748 0.45289894843 0.8804138363 -0.15874904637 0.44684473491 
0.89604340302 -0.080161674905 0.43666958423 0.90553427722 -0.0076786819747 0.4242036193 0.90976086069 0.057206157576 0.41117226547 
0.90988782218 0.1134655644 0.39903598428 0.90718640457 0.16053875739 0.38889604619 0.9028735789 0.19823580837 0.38147328189 
0.89799478577 0.22664953301 0.37714102655 0.89334866961 0.24605994214 0.37600885544 0.88946140359 0.25683839318 0.37801117882 
0.8865828793 0.2594045299 0.38298836535 0.88469080359 0.25418331373 0.39078513926 0.88351301031 0.24156583669 0.40131123479 
0.882546253 0.22189941584 0.41457539792 0.88107080249 0.19545635563 0.43070994188 0.87816364216 0.16241747815 0.44994353021 
0.87269197498 0.12286798676 0.4725591758 0.86329936369 0.076791053875 0.49881594069 0.84838593568 0.024099317261 0.52882939315 
0.82608272745 -0.035306889705 0.5624417756 0.7942587614 -0.10141677165 0.59905563879 0.75060974539 -0.1739176955 0.63744619013 
0.69288478469 -0.25191370853 0.6756109521 0.61932464184 -0.33365370486 0.71071245468 0.52932857532 -0.41632082997 0.7392484196 
0.42421585218 -0.49606987909 0.75759856509 0.30772252321 -0.56857308914 0.76290988394 0.18583333769 -0.6299468841 0.75407751181 
0.065738866148 -0.67777369081 0.73232590117 -0.045683923138 -0.71169268565 0.70100392321 -0.14313397232 -0.73323852177 0.66473598982 
-0.22338969031 -0.74515401246 0.62836497673 -0.2850782605 -0.75055724674 0.59614948188 -0.32805918778 -0.75227924869 0.57136074533 
-0.35275219647 -0.75247009522 0.55619658727 -0.35275219647 -0.75247009522 0.55619658727 
FrenetNormal 3 128 double
-0.20603620875 -0.91854634135 0.33737471672 -0.20603620875 -0.91854634135 0.33737471672 -0.18446374688 -0.92760632868 0.32483784429 
-0.15004554133 -0.94066126425 0.30437266873 -0.10369470264 -0.95562072756 0.27574704658 -0.046891770907 -0.96995261791 0.23873223668 
0.01824678657 -0.98096924374 0.19330389962 0.088908834739 -0.98620155533 0.13964852798 0.16166611621 -0.98374889211 0.078116477993 
0.23266968678 -0.97251359881 0.0090618421339 0.29786242748 -0.95221994248 -0.067491891742 0.35323853279 -0.92310063934 -0.15201233042 
0.39488646232 -0.88528766214 -0.24562255014 0.41911950957 -0.83798675173 -0.34945248692 0.42298624786 -0.77892737058 -0.46298464929 
0.40581479956 -0.70501692478 -0.58160595272 0.37203618557 -0.61506499018 -0.69518640269 0.33285779949 -0.51298469144 -0.79123472603 
0.30305468091 -0.40705224647 -0.86166485888 0.29453871398 -0.30485229241 -0.90571078484 0.31247006068 -0.20944098731 -0.92655109628 
0.35598380004 -0.11990297028 -0.9267679385 0.42026412532 -0.033767454311 -0.90677330353 0.4985526194 0.050691116494 -0.86537604335 
0.58302630031 0.13348468545 -0.80141261027 0.66615861763 0.21240411844 -0.71492460206 0.74147173879 0.28366600559 -0.60807339841 
0.80463053526 0.34270939461 -0.48489171221 0.85388087214 0.38506414968 -0.3501614725 0.88952480589 0.40679974741 -0.20798938726 
0.91276962177 0.40398376188 -0.060404782168 0.92357511512 0.37203210847 0.092742207236 0.9181694419 0.30530550383 0.25249440645 
0.88692000381 0.19997642945 0.41639204425 0.81716188499 0.061583030221 0.5731090508 0.70493339789 -0.087235366118 0.70388841121 
0.56441020564 -0.2145477002 0.79712634137 0.41721707355 -0.29888392731 0.85825305798 0.27545547513 -0.33551832472 0.90086166252 
0.13885485888 -0.32773031603 0.93451172712 0.0011590722005 -0.27856062782 0.96041794713 -0.14364567636 -0.18874415873 0.97146361857 
-0.29619343951 -0.059246474571 0.95328867697 -0.44720321368 0.10291879214 0.88849142252 -0.57712966965 0.27967370111 0.76727046425 
-0.66514313677 0.44600675929 0.59888444484 -0.70193845745 0.58313116479 0.40895042071 -0.69169924648 0.68671986239 0.22353519415 
-0.64435710301 0.76250592863 0.058211962634 -0.56829714708 0.81881203516 -0.081149267956 -0.46837102194 0.86209691143 -0.1934360388 
-0.34527936533 0.89635749227 -0.27807446112 -0.19422122447 0.9230211382 -0.33212963495 -0.0018569699805 0.93793545102 -0.34680490391 
0.2568389246 0.91869045014 -0.3000693647 0.59350053254 0.7905822771 -0.1507872044 0.88728679037 0.45029001902 0.099805062017 
0.95304102914 0.021479779226 0.30207849288 0.87914473766 -0.29790087351 0.3719672026 0.78632510726 -0.51134119665 0.34673189397 
0.70108109069 -0.66526850231 0.25671603787 0.61604949878 -0.77930703444 0.11473256346 0.51926996001 -0.85207157002 -0.065823614284 
0.40535017525 -0.87597317511 -0.2614617217 0.27991920016 -0.85133190935 -0.44371074081 0.15513448412 -0.79028086914 -0.59278110607 
0.041730567452 -0.70917013061 -0.70380131116 -0.054342916151 -0.62078788095 -0.7820928681 -0.13120176208 -0.53264557488 -0.8361069245 
-0.1892553817 -0.44857499015 -0.8734774632 -0.22970983604 -0.37049481235 -0.89998165828 -0.25353724938 -0.29943247143 -0.91981468689 
-0.25992317073 -0.23560772683 -0.93644484321 -0.24338876182 -0.17757726447 -0.953534596 -0.1826064713 -0.11815920144 -0.97606007999 
0.02461350265 -0.020367057737 -0.99948954894 0.85321546454 0.30251889355 -0.42485961225 0.77760560802 0.30454431627 0.55007479291 
0.65101482267 0.28492845046 0.70355915088 0.60001792888 0.30484326721 0.73962765461 0.57525366932 0.34683320372 0.7408035804 
0.5615095723 0.4038449864 0.72223003758 0.55265797969 0.47126479225 0.68737082646 0.54530518609 0.54488749209 0.63697713851 
0.53685107031 0.6204784081 0.57166202725 0.52485791829 0.69390061772 0.49297677261 0.50695849767 0.76148429444 0.40389943174 
0.48119970202 0.82047839165 0.30864551771 0.44626003381 0.86934543255 0.21234524041 0.4020438193 0.90776531892 0.11967829015 
0.34934031709 0.93634875092 0.034818953196 0.2900171855 0.95620139834 -0.039609568605 0.22628201462 0.96874021319 -0.10168013183 
0.16060473625 0.97547937821 -0.15048621656 0.095251918702 0.97799244219 -0.18562827104 0.031968736888 0.97786423512 -0.20678379416 
-0.028130780877 0.97653106146 -0.21353160228 -0.085079653298 0.97524198478 -0.20411889602 -0.14034737228 0.97463874742 -0.1743041225 
-0.19917794878 0.9736691969 -0.11088931299 -0.27734715767 0.96028452784 0.030531618591 -0.41472164595 0.80112057991 0.43152262145 
-0.33698001714 -0.20499470102 0.91892417565 -0.11263806722 -0.6968847444 0.70828265462 -0.047167029091 -0.8065216354 0.58932005142 
-0.0386798553 -0.8444059534 0.53430558172 -0.057443488738 -0.85966227274 0.50762291362 -0.093924276273 -0.86374323217 0.49510186751 
-0.14372237462 -0.86030454744 0.48910118042 -0.20395041063 -0.85097932115 0.48398184364 -0.27241792809 -0.83666679964 0.47516011916 
-0.34740543764 -0.81774409318 0.45891617967 -0.42731596892 -0.79415400939 0.43211164308 -0.51045006593 -0.76521086203 0.39229206826 
-0.59481372907 -0.72931150607 0.33808483376 -0.67729278805 -0.68490423539 0.26866460058 -0.75405989989 -0.6302067139 0.18502206661 
-0.82051005809 -0.56453626963 0.089788890362 -0.87219932321 -0.48898774111 -0.012622583927 -0.90623216637 -0.40648589381 -0.11624318808 
-0.92212903819 -0.32168055655 -0.21494105345 -0.92211788003 -0.23984731742 -0.30359822077 -0.91060251367 -0.16554455847 -0.37867936471 
-0.89269273591 -0.1024599389 -0.43886403382 -0.87353922592 -0.052566127539 -0.48390703964 -0.8571644639 -0.017162681912 -0.51475676214 
-0.84669104514 0.0036350434689 -0.53207242039 -0.84669104514 0.0036350434689 -0.53207242039 
FrenetBinormal 3 128 double
0.43715226841 0.22205500827 0.87154430038 0.43715226841 0.22205500827 0.87154430038 0.43645505443 0.21882065893 0.87271100869 
0.43548373247 0.21350399412 0.87451127108 0.43443938976 0.20587813675 0.87685609391 0.43360428316 0.1955393828 0.87963155662 
0.43337847273 0.18198995278 0.88264531747 0.43430363555 0.16455788909 0.88560773105 0.43710965537 0.14235221965 0.88807150317 
0.44277259598 0.11421816955 0.8893293192 0.4525932625 0.078617565643 0.88824468313 0.4681985713 0.033758187141 0.88297818922 
0.49146211832 -0.022332113565 0.87061257914 0.52401297847 -0.09105449751 0.84682907182 0.56615192984 -0.1717584502 0.80620780642 
0.61537689437 -0.25972457378 0.74421396362 0.66572505812 -0.34510349108 0.6615993708 0.70993999332 -0.41592963971 0.56832010407 
0.74348968658 -0.46462766615 0.48098255457 0.76590965924 -0.4914942389 0.41450670322 0.77858749659 -0.50233028448 0.37611938989 
0.7823225611 -0.5041940574 0.36573181824 0.77681820065 -0.50307896649 0.37876778718 0.76115996382 -0.50331921833 0.40902967367 
0.73467625172 -0.50778135864 0.44989876302 0.69707144295 -0.51816561541 0.49557622868 0.64857160193 -0.53526355024 0.54115414527 
0.58946519681 -0.55925816173 0.58289029009 0.51952255292 -0.59004422771 0.61801628325 0.43754332882 -0.62741855345 0.64412870934 