# vtk DataFile Version 4.2
vtk output
ASCII
DATASET POLYDATA
POINTS 128 float
0 0 0 -0.296372 -0.0681425 0.140464 -0.888039 -0.200047 0.40045 
-1.4025 -0.305476 0.57962 -1.84454 -0.389177 0.691566 -2.31437 -0.47958 0.802256 
-2.80686 -0.577185 0.910726 -3.29482 -0.676841 1.00243 -3.77748 -0.781362 1.08173 
-4.26035 -0.895748 1.15743 -4.74153 -1.02419 1.23272 -5.21678 -1.17132 1.3093 
-5.68167 -1.34533 1.39014 -6.13085 -1.5558 1.47731 -6.55445 -1.81354 1.56551 
-6.94152 -2.12776 1.64383 -7.28391 -2.4961 1.68341 -7.57537 -2.90873 1.6511 
-7.81553 -3.33577 1.52619 -8.00689 -3.74218 1.29704 -8.15645 -4.10762 0.979795 
-8.27244 -4.41936 0.60009 -8.36011 -4.6777 0.17629 -8.42307 -4.88818 -0.2769 
-8.46216 -5.05662 -0.749834 -8.47694 -5.18903 -1.23523 -8.46574 -5.29204 -1.72772 
-8.42647 -5.37263 -2.22286 -8.35752 -5.4389 -2.71685 -8.25772 -5.4995 -3.20629 
-8.12757 -5.56336 -3.68809 -7.96865 -5.6395 -4.1594 -7.78466 -5.73598 -4.61774 
-7.58052 -5.86011 -5.06081 -7.36223 -6.01677 -5.48639 -7.13632 -6.20948 -5.89232 
-6.90887 -6.44114 -6.27709 -6.68579 -6.71388 -6.63919 -6.47429 -7.02554 -6.97331 
-6.28211 -7.37306 -7.27236 -6.11409 -7.77019 -7.53321 -5.97722 -8.23571 -7.74855 
-5.92069 -8.73231 -7.83886 -6.01143 -9.18781 -7.69317 -6.2227 -9.52735 -7.34835 
-6.47238 -9.6846 -6.92881 -6.7231 -9.69837 -6.4909 -6.96536 -9.66519 -6.04823 
-7.19505 -9.61909 -5.60407 -7.41118 -9.55457 -5.15548 -7.61194 -9.47779 -4.70044 
-7.7949 -9.40272 -4.2376 -7.95717 -9.33968 -3.76569 -8.09552 -9.29651 -3.28368 
-8.20585 -9.28439 -2.79265 -8.28355 -9.31681 -2.29564 -8.32589 -9.40555 -1.8011 
-8.33189 -9.56047 -1.32159 -8.30519 -9.78227 -0.869083 -8.25312 -10.0643 -0.454627 
-8.18347 -10.3963 -0.0820547 -8.10423 -10.7659 0.250852 -8.02114 -11.1628 0.54887 
-7.938 -11.5792 0.818776 -7.85732 -12.0095 1.06654 -7.78052 -12.4498 1.29729 
-7.70841 -12.8974 1.51501 -7.64126 -13.3506 1.72261 -7.57883 -13.8079 1.92217 
-7.52039 -14.2687 2.11501 -7.46443 -14.7323 2.30181 -7.40861 -15.1982 2.48266 
-7.34963 -15.6661 2.65732 -7.28315 -16.1355 2.82528 -7.20408 -16.6055 2.98602 
-7.1066 -17.0747 3.1391 -6.98494 -17.5408 3.28439 -6.83354 -18.0004 3.42217 
-6.64832 -18.4497 3.55315 -6.42711 -18.884 3.67856 -6.16951 -19.2991 3.79981 
-5.87719 -19.6912 3.91848 -5.55272 -20.0576 4.03608 -5.19965 -20.3963 4.15406 
-4.82149 -20.7061 4.27363 -4.42158 -20.9861 4.39576 -4.00298 -21.2356 4.52129 
-3.56833 -21.4536 4.65093 -3.12016 -21.6388 4.78534 -2.66079 -21.7895 4.92518 
-2.19286 -21.9035 5.07123 -1.71945 -21.9791 5.22443 -1.24406 -22.0148 5.38595 
-0.770823 -22.0103 5.55727 -0.303904 -21.9669 5.74011 0.152586 -21.8875 5.93657 
0.595191 -21.7767 6.14884 1.02167 -21.6416 6.37918 1.43075 -21.4897 6.62957 
1.82282 -21.3298 6.90134 2.19894 -21.1706 7.19504 2.56121 -21.0197 7.50981 
2.91191 -20.8844 7.8442 3.25341 -20.7711 8.19591 3.58774 -20.6861 8.56227 
3.91622 -20.6352 8.94013 4.23949 -20.6243 9.3259 4.55673 -20.6595 9.71527 
4.86585 -20.7463 10.1035 5.16212 -20.8892 10.4849 5.43961 -21.0911 10.8541 
5.69051 -21.35 11.2061 5.90768 -21.662 11.5369 6.08666 -22.0186 11.8447 
6.22484 -22.411 12.1286 6.32358 -22.8299 12.3901 6.38597 -23.2669 12.6313 
6.41838 -23.7161 12.8563 6.42705 -24.1724 13.0688 6.41598 -24.6323 13.271 
6.39263 -25.0934 13.4668 6.37696 -25.5563 13.6673 6.38242 -26.019 13.8789 
6.39172 -26.4692 14.0875 6.41366 -26.9005 14.2944 6.57857 -27.3376 14.5755 
6.92936 -27.7559 14.9405 7.13622 -27.9492 15.1315 
LINES 1 129
128 0 1 2 3 4 5 6 7 8 9 10 11 12 13 14 15 16 17 18 19 20 21 22 23 24 25 26 27 28 29 30 31 32 33 34 35 36 37 38 39 40 41 42 43 44 45 46 47 48 49 50 51 52 53 54 55 56 57 58 59 60 61 62 63 64 65 66 67 68 69 70 71 72 73 74 75 76 77 78 79 80 81 82 83 84 85 86 87 88 89 90 91 92 93 94 95 96 97 98 99 100 101 102 103 104 105 106 107 108 109 110 111 112 113 114 115 116 117 118 119 120 121 122 123 124 125 126 127 

CELL_DATA 1
FIELD FieldData 2
Length 1 1 double
57.735476312 
Tortuosity 1 1 double
0.77245700294 
POINT_DATA 128
SCALARS MaximumInscribedSphereRadius float
LOOKUP_TABLE default
1.24 1.15096 1.06192 0.968568 0.874834 0.786113 0.697476 0.712695 0.734 
0.824876 0.920968 1.02841 1.13694 1.25933 1.38333 1.40021 1.40239 1.28337 
1.14544 1.14198 1.1615 1.36429 1.6017 1.55056 1.4386 1.34612 1.25822 
1.25463 1.27309 1.3411 1.42343 1.44447 1.446 1.38419 1.30033 1.32969 
1.40202 1.49598 1.59883 1.69061 1.77743 1.73133 1.62382 1.57708 1.55987 
1.56066 1.56943 1.57013 1.56683 1.57224 1.58221 1.64252 1.73142 1.78148 
1.8078 1.79709 1.76212 1.72905 1.69732 1.75385 1.8757 1.95026 1.98751 
1.86859 1.61775 1.51267 1.53957 1.66806 1.89515 1.9768 1.90702 1.81973 
1.71287 1.68023 1.73646 1.78803 1.8336 1.85353 1.83815 1.79798 1.72119 
1.65253 1.59673 1.55957 1.55412 1.55876 1.58188 1.6167 1.6746 1.75603 
1.88757 1.99007 2.0257 2.00198 1.83018 1.70306 1.69716 1.71708 1.81343 
1.90962 2.0053 2.07873 2.07239 2.05146 1.97251 1.90506 1.88856 1.89997 
2.05013 2.22356 2.52729 2.78732 2.76999 2.7439 2.65379 2.56462 2.4835 
2.40955 2.41033 2.41086 2.4082 2.3971 2.23925 2.08146 1.92549 1.77387 
1.67743 1.581 
TEXTURE_COORDINATES TCoords 2 float
0 0 0.00787402 0 0.015748 0 0.023622 0 0.0314961 
0 0.0393701 0 0.0472441 0 0.0551181 0 0.0629921 0 
0.0708661 0 0.0787402 0 0.0866142 0 0.0944882 0 0.102362 
0 0.110236 0 0.11811 0 0.125984 0 0.133858 0 
0.141732 0 0.149606 0 0.15748 0 0.165354 0 0.173228 
0 0.181102 0 0.188976 0 0.19685 0 0.204724 0 
0.212598 0 0.220472 0 0.228346 0 0.23622 0 0.244094 
0 0.251969 0 0.259843 0 0.267717 0 0.275591 0 
0.283465 0 0.291339 0 0.299213 0 0.307087 0 0.314961 
0 0.322835 0 0.330709 0 0.338583 0 0.346457 0 
0.354331 0 0.362205 0 0.370079 0 0.377953 0 0.385827 
0 0.393701 0 0.401575 0 0.409449 0 0.417323 0 
0.425197 0 0.433071 0 0.440945 0 0.448819 0 0.456693 
0 0.464567 0 0.472441 0 0.480315 0 0.488189 0 
0.496063 0 0.503937 0 0.511811 0 0.519685 0 0.527559 
0 0.535433 0 0.543307 0 0.551181 0 0.559055 0 
0.566929 0 0.574803 0 0.582677 0 0.590551 0 0.598425 
0 0.606299 0 0.614173 0 0.622047 0 0.629921 0 
0.637795 0 0.645669 0 0.653543 0 0.661417 0 0.669291 
0 0.677165 0 0.685039 0 0.692913 0 0.700787 0 
0.708661 0 0.716535 0 0.724409 0 0.732283 0 0.740157 
0 0.748031 0 0.755906 0 0.76378 0 0.771654 0 
0.779528 0 0.787402 0 0.795276 0 0.80315 0 0.811024 
0 0.818898 0 0.826772 0 0.834646 0 0.84252 0 
0.850394 0 0.858268 0 0.866142 0 0.874016 0 0.88189 
0 0.889764 0 0.897638 0 0.905512 0 0.913386 0 
0.92126 0 0.929134 0 0.937008 0 0.944882 0 0.952756 
0 0.96063 0 0.968504 0 0.976378 0 0.984252 0 
0.992126 0 1 0 
FIELD FieldData 7
Curvature 1 128 double
0 0.011032861623 0.020315954975 0.028785460664 0.03676903612 0.045065711796 0.054692372889 0.066502076817 0.080962407143 
0.098220119432 0.11829603549 0.14125458092 0.16721528338 0.1961780278 0.22767718373 0.26029893104 0.29129744927 0.31668140044 
0.33213800357 0.33455496778 0.3234137705 0.30094448925 0.27105170088 0.23775817318 0.20433319653 0.17296886285 0.14511781598 
0.12193102143 0.10469680992 0.094846684699 0.093414681926 0.10010799085 0.11370080903 0.13326319225 0.15915395222 0.19352198144 
0.24091413679 0.30954497415 0.41303615196 0.57116221973 0.80048522503 1.0730798192 1.2539154379 1.1846014654 0.915937516 
0.62803779714 0.41059700327 0.26447437321 0.16842340325 0.10670149165 0.075604961422 0.077551840711 0.10023352081 0.12910697158 
0.15769030774 0.18254668264 0.20095937736 0.21095371254 0.21170260951 0.20392212821 0.18951384461 0.17095942041 0.1506263842 
0.13038355147 0.11142725244 0.094416221475 0.079653798244 0.067291844683 0.057587355505 0.051115163891 0.048686800953 0.050829547499 
0.05714034834 0.066533965295 0.077815061865 0.089980464456 0.1022003005 0.11379291527 0.12423039427 0.13308957154 0.14019263557 
0.14551609376 0.14923072627 0.15161104395 0.15296719791 0.15358804154 0.15364432606 0.15324131461 0.15220473035 0.15034108374 
0.14733066949 0.1429034294 0.13677070143 0.12894186414 0.11955368796 0.10908277288 0.098349391557 0.088558109225 0.081418406469 
0.078809962078 0.082073871484 0.091189913394 0.10503555364 0.12208073784 0.14105369155 0.16069759023 0.17980250339 0.19697706023 
0.21076071941 0.21958469083 0.22217277956 0.21775375804 0.20626667025 0.18829405455 0.16512440976 0.13818934327 0.10902862754 
0.079139788812 0.050016898365 0.024391482108 0.015463043957 0.029564706064 0.042070575903 0.047380574833 0.044393292987 0.033634959796 
0.017127856872 0 
Torsion 1 128 double
0 0 0.1398003922 0.19007543025 0.22961570119 0.24223384133 0.21775045698 0.16109126027 0.087984771038 
0.013196154277 -0.054800669054 -0.11222253201 -0.15751459469 -0.1897832135 -0.20869848336 -0.21476637119 -0.20931539962 -0.19414054083 
-0.17102598687 -0.14115813548 -0.10505133549 -0.062628276589 -0.013356349571 0.043883774637 0.11134600587 0.19271991344 0.29316227343 
0.4155421665 0.54855668757 0.64918902287 0.66075842573 0.58510430581 0.4785485509 0.38249781033 0.30648100572 0.24660251858 
0.19675056291 0.15202512116 0.10935144942 0.067476295977 0.027664220461 -0.0067963432458 -0.035464374027 -0.064436073604 -0.10114569645 
-0.14982832574 -0.21774189077 -0.32741219523 -0.53658432057 -0.96404393325 -1.5014983418 -1.2007900423 -0.64330766197 -0.36359829876 
-0.23567832326 -0.17190479972 -0.13755847962 -0.11788236244 -0.1062012129 -0.09902610644 -0.093917177592 -0.08893345795 -0.081878557868 
-0.069802212929 -0.04845807123 -0.012178522103 0.046638178601 0.13554418436 0.25694667243 0.3898890651 0.47468900889 0.45943268986 
0.37400519549 0.28153553489 0.21125796632 0.16448163267 0.13520266534 0.11761552729 0.10734906773 0.10199622268 0.099827571783 
0.099797894361 0.10111113395 0.10330954742 0.10614779617 0.10947928766 0.11346228452 0.11830649459 0.12442958584 0.13262888357 
0.1436705153 0.15849673125 0.17894928356 0.20696250306 0.24612989103 0.30077500474 0.37569874724 0.47095881752 0.56868684451 
0.62327508803 0.59142425289 0.49257074492 0.37818992648 0.27952623604 0.20242526034 0.14341497254 0.097892317958 0.062513723871 
0.035085773664 0.014078755181 -0.001172494028 -0.010981470158 -0.015720046053 -0.014952700132 -0.0076671260554 0.0085049093518 0.041175937446 
0.11310230335 0.32059891894 1.3139979731 2.8206826399 0.59189980163 0.19634247068 0.088451785276 0.045685761442 0.024408382195 
0 0 
Abscissas 1 128 double
0 0.50289971952 1.005799439 1.5087001375 2.0116009235 2.5144992232 3.0173974812 3.5202955214 4.0231935489 
4.5260932397 5.0289930552 5.5318920101 6.0347908827 6.5376946148 7.0405989146 7.5434953718 8.0463907531 8.5492885752 
9.052186778 9.5550882925 10.057990373 10.560889885 11.063788912 11.566688475 12.069588151 12.572487086 13.075385845 
13.578287671 14.0811903 14.58408775 15.086983703 15.589882873 16.092783066 16.595682236 17.098581051 17.601481369 
18.104382258 18.607281642 19.110180406 19.613080828 20.115981994 20.618881144 21.121779363 21.624676752 22.127573738 
22.630474247 23.133376318 23.636278599 24.139180982 24.642079359 25.144975631 25.647875717 26.150777966 26.653677619 
27.156575683 27.659473459 28.162371046 28.665271694 29.168174479 29.67108186 30.173992645 30.676881308 31.179752522 
31.682637619 32.18553444 32.688446593 33.191372626 33.694274824 34.197153892 34.700051292 35.202967774 35.705876312 
36.208775981 36.711664621 37.214540052 37.717437421 38.220362987 38.723280475 39.226186834 39.729081531 40.231959005 
40.734848243 41.237756118 41.740656006 42.243542309 42.746434844 43.249338781 43.752244016 44.25515181 44.758056294 
45.260953728 45.763851674 46.266750799 46.769651064 47.272554172 47.775456058 48.278354632 48.78125117 49.284141684 
49.787034537 50.289934994 50.792834834 51.29573246 51.798630279 52.301528869 52.804427592 53.307326905 53.810224516 
54.313113657 54.816008267 55.318933512 55.82185092 56.324718592 56.827590227 57.330490791 57.833392638 58.336305509 
58.839219354 59.342143368 59.845066362 60.347975851 60.850881972 61.353729599 61.856578779 62.359493261 62.862406833 
63.365308817 63.868210801 
ParallelTransportNormals 3 128 double
0.40910943554 0 0.91248532577 0.35223131014 -0.011966350386 0.93362246315 0.29535318474 -0.023932700773 0.95475960054 
0.26101050228 -0.030735709733 0.96428672952 0.2286825794 -0.037077095121 0.97277587688 0.20566476034 -0.041754904785 0.97743119558 
0.18280328316 -0.046404778501 0.9820221339 0.17470126341 -0.048252769203 0.98340932272 0.16746430934 -0.049936538904 0.98460873676 
0.17372364354 -0.048021307827 0.9835925652 0.18099480782 -0.045836256103 0.982410289 0.19658328221 -0.038971836747 0.97954194846 
0.21296660561 -0.031660230667 0.97651247812 0.20479053885 -0.038230313907 0.97795993745 0.19374548243 -0.046422034445 0.97993038472 
0.126180565 -0.1299407046 0.97607368213 0.050862294323 -0.22379267068 0.97141761537 -0.032889444847 -0.37584201962 0.90499532722 
-0.11795661744 -0.53696886528 0.82893888295 -0.16808431672 -0.6550907199 0.71755377669 -0.21224141406 -0.7658637035 0.60013156231 
-0.23353247761 -0.82893100662 0.49460031811 -0.25050562609 -0.88298979176 0.3913145092 -0.25642308558 -0.91253738715 0.30778737762 
-0.26000984298 -0.93691766267 0.22842566627 -0.25789926955 -0.94953558071 0.17031381605 -0.25444799569 -0.95938557142 0.11720250007 
-0.25067079613 -0.96367227674 0.089789299971 -0.24680834982 -0.96650388957 0.069097512276 -0.24942344296 -0.96533864797 0.075441956294 
-0.25391187887 -0.9630174924 0.089605438656 -0.26933586579 -0.95365264033 0.12559890716 -0.28823969467 -0.94204638766 0.16853897599 
-0.31682118567 -0.91905693487 0.22357600006 -0.34877302853 -0.89210315791 0.28282592135 -0.38624958432 -0.85035177475 0.34659988468 
-0.42582221747 -0.8029861764 0.41209027059 -0.46888630887 -0.73256319609 0.48080991484 -0.51338597344 -0.6526597763 0.55085732424 
-0.56300423867 -0.4966312198 0.62856636984 -0.61492060664 -0.30642469232 0.70971526711 -0.58649199329 0.073978231084 0.66097768582 
-0.52094091293 0.54225919388 0.55222756317 -0.3943787171 0.79269688061 0.33884708396 -0.2381759367 0.93730135974 0.074634802899 
-0.16226623529 0.98178539775 -0.057423851842 -0.12196228717 0.98187129126 -0.13087933091 -0.10170856834 0.98000542899 -0.16949117281 
-0.091341585759 0.97717715906 -0.19092167252 -0.09164424116 0.97765795504 -0.18855624877 -0.097549776788 0.9798764201 -0.17369502063 
-0.10962563316 0.98349128841 -0.13395307825 -0.12520454706 0.9878989325 -0.080085683234 -0.14157523596 0.9849822532 0.0051550957158 
-0.15842988517 0.97758869368 0.10957237391 -0.16707493711 0.94815977904 0.23463882685 -0.17033806771 0.90428526565 0.37324214776 
-0.16414458472 0.84128843467 0.49885676766 -0.15135034189 0.76494413796 0.61540521445 -0.13724286288 0.6908055748 0.70398518441 
-0.1221633736 0.61829961639 0.77186389239 -0.11000865022 0.55851313555 0.82034596381 -0.10016111103 0.508760339 0.85352711376 
-0.092835718473 0.46981601722 0.87733680786 -0.087640509926 0.44000044313 0.89323144848 -0.083776160745 0.41645818658 0.90511618339 
-0.081116783065 0.39859584561 0.91337031521 -0.078985545184 0.38342847083 0.92010862478 -0.077366846239 0.37087645492 0.92537588836 
-0.075800831614 0.35852714065 0.93036766017 -0.074289664391 0.3463888504 0.93507262923 -0.072492811759 0.33330889782 0.93993742205 
-0.070377041636 0.31917774494 0.94498062998 -0.067729044507 0.30465614498 0.9499542088 -0.064443627398 0.28966692732 0.95484439656 
-0.060896153501 0.27627737704 0.95909081518 -0.05701184475 0.26494396023 0.96250976476 -0.054007941282 0.25693655582 0.9649124557 
-0.052217075809 0.25351179022 0.96591492748 -0.052510110083 0.25326166689 0.96596054452 -0.055880513223 0.25769965067 0.96459314017 
-0.061728514048 0.26398789435 0.96248603422 -0.071500999678 0.27320692735 0.95920724987 -0.083474489089 0.28300492888 0.95535570565 
-0.09919104588 0.29378753488 0.95053011548 -0.11698299449 0.3044718878 0.94511811809 -0.13857272474 0.31497644635 0.93863304788 
-0.16256907383 0.32495590047 0.93135298554 -0.19131160836 0.33389977598 0.92250508867 -0.2229184076 0.34169833847 0.91251253669 
-0.26062336509 0.34705847411 0.90008295854 -0.30109358445 0.35043453082 0.88613846521 -0.34793116127 0.34924200043 0.86870569233 
-0.39633673434 0.34561172149 0.84958721431 -0.44865520584 0.3358980974 0.82626209805 -0.50041559494 0.32446934874 0.80163615883 
-0.55066226696 0.30838857489 0.7734819271 -0.59838760217 0.29230845537 0.74517247408 -0.63864723527 0.27623027328 0.71640340931 
-0.67553469187 0.26151785799 0.68899467512 -0.70146208024 0.25124438513 0.66600721478 -0.72432686473 0.24243792128 0.64533238921 
-0.73621276735 0.23889041984 0.63294794172 -0.74576986579 0.23604942962 0.62298306374 -0.7460681818 0.23601736333 0.62263782995 
-0.74490782203 0.23574414347 0.62408885936 -0.73727935662 0.23440159298 0.63350493499 -0.72951486769 0.23247379761 0.64319279572 
-0.7210740759 0.22763619113 0.6542319597 -0.71359344602 0.2231591179 0.66406235479 -0.71149222526 0.2207019705 0.66712049369 
-0.71007877033 0.21948060189 0.66902575838 -0.71303047766 0.22610256407 0.66361387705 -0.71596007532 0.23355223892 0.65787235479 
-0.7187282374 0.24704552603 0.64972393211 -0.72128457809 0.2604971679 0.64175320275 -0.72202241288 0.27359128164 0.63530798665 
-0.722683894 0.28610015274 0.62917917743 -0.72254815307 0.29249840184 0.62635402848 -0.72243114407 0.29778647071 0.62402077601 
-0.72256247626 0.28835617508 0.62820890773 -0.7225317883 0.27794905673 0.63292184005 -0.71968736019 0.25057784194 0.64674877814 
-0.71614411141 0.22227897803 0.66134664491 -0.68321671529 0.15497414259 0.70836067081 -0.65268760465 0.092571492837 0.75195040359 
-0.65268760465 0.092571492837 0.75195040359 -0.65268760465 0.092571492837 0.75195040359 
FrenetTangent 3 128 double
-0.93615637541 -0.20393976919 0.28639101123 -0.93615637541 -0.20393976919 0.28639101123 -0.93745108545 -0.20747435928 0.27953506513 
-0.93911569401 -0.21364820653 0.26910250298 -0.94063233724 -0.22304010108 0.25585917894 -0.94141428321 -0.23636707183 0.24056133254 
-0.94085633088 -0.2544113401 0.22375038472 -0.93835034809 -0.27792500084 0.20556341637 -0.93326949621 -0.3075124464 0.18559133265 
-0.92493534127 -0.34349466858 0.16280671706 -0.91258358572 -0.38575896661 0.13557735343 -0.89533956972 -0.43360042588 0.10177291181 
-0.87220732888 -0.48556781167 0.058976908316 -0.8420825185 -0.53932720963 0.0048159096424 -0.80380968389 -0.59158602504 -0.062577688179 
-0.7563246583 -0.63815644632 -0.143976947 -0.69892757472 -0.67427967621 -0.23842643213 -0.6316760306 -0.6953352331 -0.34277442432 
-0.55576049007 -0.69791316851 -0.45171615745 -0.47361467766 -0.68091526636 -0.55860857239 -0.38855268663 -0.64612626082 -0.65692287583 
-0.30401395413 -0.59785259502 -0.74171948223 -0.22278763988 -0.54179128478 -0.8104491787 -0.14659431091 -0.48373864723 -0.8628482075 
-0.076104800872 -0.42867605185 -0.90024713377 -0.011245435896 -0.38039358877 -0.92475632347 0.048411752771 -0.34151628054 -0.93862821837 
0.10332891917 -0.31371181154 -0.94387924745 0.15379382183 -0.2979219969 -0.94211992025 0.19981509828 -0.2945557546 -0.93451101328 
0.24110494724 -0.30362633518 -0.92178058832 0.27711485039 -0.32484683841 -0.90425764651 0.3070964288 -0.35771827533 -0.88188968636 
0.33017041747 -0.4016169726 -0.85421970403 0.34535308028 -0.4558977532 -0.82029780481 0.35151735277 -0.52000203381 -0.77848149338 
0.34723097712 -0.59349886363 -0.72607833421 0.33043525515 -0.67592438795 -0.65874028564 0.29794290897 -0.76606129523 -0.5695437779 
0.24487455207 -0.85985981749 -0.44797047672 0.16486977077 -0.94563976487 -0.28032729762 0.053777997393 -0.99693711813 -0.056783003591 
-0.079950459427 -0.97468434886 0.20880216505 -0.20808062136 -0.86043537069 0.46513807399 -0.30147811906 -0.68881955427 0.6592712381 
-0.35376751786 -0.51457862252 0.78106170342 -0.37487233979 -0.36877090334 0.85057554027 -0.37604463627 -0.25847664773 0.88982034935 
-0.36476200701 -0.18097569152 0.91334357025 -0.34520231332 -0.13175364296 0.9292342764 -0.31955295384 -0.10701672623 0.94150588421 
-0.28894214962 -0.10399416719 0.9516814842 -0.25401198861 -0.12061584756 0.95965083596 -0.21529431728 -0.15502945899 0.96416503971 
-0.17348322815 -0.20510030037 0.9632431865 -0.12962573634 -0.26802483086 0.95465169487 -0.085190636661 -0.34014013096 0.93650800676 
-0.041978670135 -0.41708055254 0.90789955609 -0.0018578824247 -0.49428026095 0.86930062229 0.03357966189 -0.56766459952 0.82257480435 
0.063301960261 -0.63423716833 0.77054271533 0.08696329492 -0.69231952933 0.71633166525 0.10485464507 -0.74144022585 0.66277590097 
0.11774849121 -0.7820065066 0.61204666199 0.12672263865 -0.81492592271 0.5655414338 0.13301577848 -0.84129549536 0.52395485699 
0.13792855374 -0.86220103485 0.48742700947 0.14276514164 -0.87860289377 0.45571380206 0.14878755917 -0.8912836179 0.42834072267 
0.15718777586 -0.90082820005 0.40472281516 0.16904940355 -0.90761691698 0.38425750633 0.18530886869 -0.91182175211 0.36639011389 
0.20671069111 -0.91340820793 0.3506510172 0.23375815209 -0.9121445214 0.33667417247 0.26667166375 -0.90762327532 0.32420088503 
0.30534978389 -0.89930269812 0.313075337 0.34934967851 -0.88657015993 0.30322953954 0.39789145802 -0.86882229166 0.29466966785 
0.44990419566 -0.84554890712 0.2874600153 0.50409507734 -0.81641516155 0.28169919594 0.55905570871 -0.78131095259 0.27750659436 
0.61338438513 -0.74035893948 0.27500588504 0.66578447896 -0.69388961094 0.27431411815 0.71513854017 -0.64238525424 0.27553230937 
0.76053334885 -0.58642233051 0.27874338658 0.80125068173 -0.52662397322 0.28401502751 0.83673174004 -0.46364311682 0.2914018796 
0.86653997974 -0.39816612264 0.30095215947 0.89032415305 -0.330964144 0.31270695209 0.90781489014 -0.26295096831 0.3266939141 
0.91885281297 -0.19521379839 0.34293014013 0.9234355826 -0.12902795598 0.3614118307 0.92177253207 -0.065843783706 0.38209945731 
0.91432457764 -0.0072153587717 0.40491789948 0.90181284245 0.045301424451 0.42974571335 0.8851816583 0.090236484195 0.45641078945 
0.86552153868 0.12630505478 0.48468494841 0.84396646286 0.15245360057 0.51427474101 0.82157823564 0.16788321703 0.54481595807 
0.7992389371 0.17203254245 0.57586623948 0.77756699675 0.16453468657 0.60689200232 0.75684648716 0.14521224571 0.63725724678 
0.73698973815 0.11404692956 0.66621274659 0.71752464743 0.071206677953 0.69288382096 0.69761232056 0.017106406831 0.71627119239 
0.67610903607 -0.047503263952 0.73526866604 0.65168213269 -0.12139424792 0.74871478849 0.62298890248 -0.20274623055 0.75549903599 
0.58891799555 -0.28908873005 0.75472067726 0.54886671798 -0.37735616976 0.74588715436 0.50298173516 -0.46410565611 0.72911954717 
0.45229121206 -0.54591482734 0.7052727563 0.39866787712 -0.6198390012 0.6759168117 0.34461254941 -0.68378563939 0.64317912758 
0.2929148365 -0.73673314667 0.60944660895 0.24629292797 -0.77869036987 0.57704514685 0.20710295743 -0.81044820321 0.54797999501 
0.17713552058 -0.83325732175 0.52374158045 0.15750492291 -0.84848977582 0.50522994725 0.14857071985 -0.85740729443 0.49272656988 
0.14985912983 -0.86106066364 0.4859184857 0.16000088986 -0.86033162503 0.48397232381 0.17672604514 -0.85610447064 0.48564703265 
0.19699500602 -0.84947289134 0.48947806333 0.21734060226 -0.84185051565 0.49401495109 0.23437967939 -0.834884074 0.4980308714 
0.24535884048 -0.83014425576 0.50065911958 0.24535884048 -0.83014425576 0.50065911958 
FrenetNormal 3 128 double
-0.17911898947 -0.42428252739 -0.88763772146 -0.17911898947 -0.42428252739 -0.88763772146 -0.15640430264 -0.46636119338 -0.87065775792 
-0.11977703303 -0.53050155257 -0.83917910191 -0.07011480997 -0.6098602863 -0.78940125704 -0.010749508457 -0.6919049512 -0.72190857217 
0.052223404761 -0.76141532575 -0.64615742487 0.1126020212 -0.80796225673 -0.57837511747 0.16715818796 -0.8292058796 -0.53336268096 
0.21607037532 -0.82746657399 -0.51827855623 0.26112992119 -0.80498495695 -0.53273856941 0.3041527116 -0.76217664438 -0.57146993865 
0.34637779979 -0.69827360921 -0.62644743314 0.38842506922 -0.61261695778 -0.68835051292 0.43051720443 -0.50589129349 -0.74748172945 
0.4724746914 -0.38061851448 -0.79491962639 0.51361507161 -0.24123002956 -0.82341218782 0.5526356819 -0.09380502532 -0.82812705566 
0.58787074779 0.054275045933 -0.8071320854 0.61791184693 0.19506271446 -0.76166625687 0.64260983458 0.32092954744 -0.69574192492 
0.66358075484 0.42573915722 -0.61514774796 0.68433177155 0.50516858315 -0.52582766098 0.70947620466 0.55641931254 -0.43248244317 
0.74399488859 0.57668523613 -0.33749925063 0.79178660013 0.56142738858 -0.24056863304 0.85368193263 0.50200684933 -0.13862280163 
0.92270165446 0.38458139453 -0.026810591884 0.97600925223 0.19452108124 0.097813539546 0.97155235625 -0.064176667694 0.22796353741 
0.87459688206 -0.34370398451 0.3419764099 0.701316447 -0.57491712903 0.42145644604 0.50277909241 -0.72580643704 0.46948716721 
0.31584976313 -0.80579567266 0.50093139356 0.1528185662 -0.83509199567 0.52845798753 0.01405916955 -0.8285239101 0.55977716115 
-0.10367344855 -0.7938010001 0.59927605351 -0.20369213054 -0.73256801368 0.64950259529 -0.28883414598 -0.64102004007 0.71110346951 
-0.36047514324 -0.50965864165 0.78122067311 -0.41655257047 -0.32438399008 0.84926967626 -0.44800346688 -0.074909465803 0.89088802079 
-0.43905875734 0.22249229473 0.87047377122 -0.38145920819 0.50927896186 0.77144268193 -0.28907472924 0.72492983961 0.62522998053 
-0.18284155473 0.85699785371 0.48179211762 -0.069705446952 0.92609629191 0.37079213688 0.060475005301 0.95141162577 0.30192497757 
0.2359941298 0.93092858234 0.27870906925 0.50644635147 0.80742282439 0.3026226623 0.85088941899 0.40483062126 0.33481243217 
0.94246805619 -0.20547685311 0.26369153551 0.81028531083 -0.56830915424 0.14304691632 0.68686272311 -0.72586192897 0.036661419401 
0.60091987934 -0.79694266928 -0.061462838404 0.53854075826 -0.82742693005 -0.15918080013 0.4883230943 -0.8335517505 -0.2583254436 
0.44304054659 -0.82224652542 -0.35724742898 0.39893392539 -0.79749846501 -0.45260128312 0.35394980496 -0.76294222516 -0.54096090121 
0.30774917956 -0.72205972234 -0.61961294358 0.26085995129 -0.67814142144 -0.68707808751 0.21486545952 -0.63381862548 -0.74303888479 
0.17217132596 -0.59092367427 -0.78814100623 0.13695665183 -0.55030300174 -0.82365616722 0.11539725966 -0.51191077523 -0.85125250699 
0.11699471718 -0.47450215671 -0.87244480595 0.15470714837 -0.43496144844 -0.88705931967 0.24315073083 -0.38688870209 -0.88949134582 
0.38968627646 -0.31998623659 -0.863570156 0.57287683832 -0.22676452243 -0.78764838569 0.74032537402 -0.11564185899 -0.66222752965 
0.85257672669 -0.0076576384418 -0.52254596513 0.91191934278 0.085561178655 -0.40135071567 0.93691291399 0.16524672584 -0.30803848981 
0.94186755778 0.23683793569 -0.2383134403 0.93421529079 0.30467278549 -0.18551626409 0.91730162876 0.37133050733 -0.14377543669 
0.89244367738 0.43777723252 -0.10906593145 0.86014222095 0.50395166822 -0.078664323835 0.82062457667 0.56922619191 -0.050565270664 
0.77411580169 0.63260600278 -0.023545080531 0.72090577777 0.69302505953 0.0033356332531 0.66141496777 0.74940025502 0.030487672654 
0.5960979315 0.80079246945 0.058298172743 0.52548876898 0.84635716232 0.086839550064 0.4501031163 0.88537437033 0.11627299372 
0.37048305685 0.91718016597 0.14670667243 0.28714679676 0.94110754064 0.17850298051 0.20072663782 0.95642569994 0.21203466079 
0.11171635576 0.96219460019 0.24839687442 0.020838620873 0.95725161609 0.28850493128 -0.071377893019 0.93981632638 0.33414139083 
-0.16429552951 0.90725886891 0.38715413437 -0.2573456666 0.8552063666 0.44988362763 -0.34953000483 0.77643371297 0.52438484445 
-0.43825390842 0.65948103535 0.61075222126 -0.51670976007 0.48842730321 0.70317124041 -0.57007168568 0.25071695377 0.78240608527 
-0.57809905798 -0.042000433482 0.81488492608 -0.53397199189 -0.33690718793 0.77547885761 -0.46014612757 -0.57404092525 0.67730536497 
-0.38784476728 -0.73588486214 0.55502243753 -0.3356018187 -0.83633803848 0.43348599133 -0.30770720478 -0.89566870276 0.3210823119 
-0.30268847909 -0.92772980048 0.21839666187 -0.31690696774 -0.94039970916 0.12336272047 -0.34646812893 -0.93744074793 0.03412740474 
-0.38718453143 -0.92061771048 -0.050509105918 -0.43493687573 -0.89092755882 -0.13068281851 -0.48568792343 -0.84957780094 -0.20572992294 
-0.53556361238 -0.79857566412 -0.27467895036 -0.58124703249 -0.74086137493 -0.33656546221 -0.62022894426 -0.68015327445 -0.39077817233 
-0.65030229268 -0.62077914095 -0.43788147517 -0.66970110128 -0.56711855357 -0.47945487914 -0.67524075277 -0.52372913228 -0.51938205764 
-0.65873228075 -0.49575860139 -0.56594627965 -0.59091077696 -0.49089211665 -0.6401948012 -0.30405244109 -0.51372667063 -0.80226991776 
0.82064821607 -0.16578006851 -0.54685781914 0.98158127397 0.1905191292 0.014165592502 0.94705488851 0.28228331324 0.15298094395 
0.92386361772 0.32793967799 0.19731088021 0.90877637862 0.35922090324 0.21233425616 0.89903682623 0.3810598846 0.21569921057 
0.89345038874 0.3940645309 0.21554477109 0.89345038874 0.3940645309 0.21554477109 
FrenetBinormal 3 128 double
0.30253533411 -0.88226578053 0.36066530762 0.30253533411 -0.88226578053 0.36066530762 0.31100346704 -0.85991954714 0.40474092446 
0.32204840572 -0.82031856407 0.47261218543 0.33210648828 -0.76047586714 0.55801589218 0.33708099238 -0.6822009571 0.64882837384 
0.33475674845 -0.59625629703 0.72966865605 0.32683238681 -0.51957163664 0.78944658169 0.31790908708 -0.46674800968 0.82527577682 
0.31274303729 -0.44419644482 0.83957209996 0.31464641002 -0.45076517031 0.83534926701 0.32535854519 -0.48070514189 0.81428765411 
0.34536472786 -0.52596375061 0.77722926977 0.3741964693 -0.57777731349 0.72536223942 0.4105422375 -0.62777382404 0.66132828238 
0.4524827922 -0.66924277841 0.58938393795 0.49769448812 -0.69796489244 0.51492252369 0.54367195573 -0.71253738908 0.44352144674 
0.58782502632 -0.7141228386 0.38011881014 0.62759388662 -0.70590717341 0.3283610452 0.66036308968 -0.6924774947 0.2905090517 
0.6835467047 -0.67920427313 0.26729283166 0.69430230733 -0.67176402578 0.25821967334 0.68931387845 -0.67556973719 0.26163315379 
0.66383707718 -0.69546457925 0.27504427637 0.61069429343 -0.73491496445 0.29487705066 0.5185397382 -0.79457897868 0.31584930987 