# vtk DataFile Version 4.2
vtk output
ASCII
DATASET POLYDATA
POINTS 128 float
0 0 0 -0.211544 0.177467 -0.197444 -0.646382 0.540389 -0.532294 
-1.05345 0.875358 -0.686194 -1.42514 1.17327 -0.680526 -1.81481 1.47624 -0.618718 
-2.21231 1.77305 -0.502512 -2.59527 2.04227 -0.313458 -2.96256 2.2802 -0.0641131 
-3.31812 2.4872 0.226757 -3.66075 2.65837 0.553674 -3.9879 2.7871 0.914496 
-4.2981 2.86624 1.30372 -4.59008 2.88848 1.71434 -4.86172 2.84692 2.1369 
-5.11103 2.73609 2.5609 -5.33846 2.55803 2.97435 -5.54585 2.31836 3.36585 
-5.73832 2.02857 3.73047 -5.92225 1.70205 4.06648 -6.1045 1.35112 4.37777 
-6.29199 0.987373 4.67044 -6.49048 0.62045 4.95151 -6.70513 0.258917 5.22789 
-6.93981 -0.0905498 5.50344 -7.19771 -0.422368 5.78026 -7.48084 -0.733163 6.05691 
-7.79062 -1.02079 6.33011 -8.1277 -1.28517 6.59437 -8.49232 -1.5273 6.84309 
-8.88377 -1.74954 7.06847 -9.30068 -1.95499 7.26223 -9.73974 -2.14752 7.4163 
-10.1964 -2.3315 7.52291 -10.6637 -2.51192 7.57613 -11.1335 -2.69413 7.57121 
-11.5957 -2.88387 7.50589 -12.0397 -3.08711 7.37926 -12.4511 -3.30975 7.19101 
-12.8142 -3.5573 6.94165 -13.11 -3.83141 6.63745 -13.3193 -4.13091 6.28868 
-13.4324 -4.44939 5.9123 -13.4467 -4.77737 5.52889 -13.3705 -5.1072 5.15407 
-13.2189 -5.43271 4.79979 -13.0055 -5.75106 4.47253 -12.7429 -6.06166 4.17521 
-12.4399 -6.36443 3.91037 -12.1026 -6.65956 3.6805 -11.7355 -6.94669 3.48957 
-11.3422 -7.22497 3.34285 -10.9258 -7.49231 3.24847 -10.4893 -7.74535 3.21715 
-10.042 -7.97462 3.26609 -9.5982 -8.16588 3.41636 -9.18185 -8.30433 3.67129 
-8.82361 -8.37569 4.01895 -8.53536 -8.38076 4.43525 -8.31297 -8.3328 4.88709 
-8.147 -8.24449 5.35432 -8.02409 -8.12756 5.82833 -7.9342 -7.99105 6.30431 
-7.87051 -7.84159 6.78057 -7.82763 -7.6854 7.25684 -7.8015 -7.52836 7.73406 
-7.78912 -7.37709 8.21365 -7.7885 -7.23897 8.69746 -7.79847 -7.12343 9.18708 
-7.81867 -7.042 9.6837 -7.84969 -7.00751 10.1854 -7.8931 -7.03377 10.6866 
-7.95009 -7.1285 11.1789 -8.02134 -7.29235 11.6501 -8.10617 -7.52031 12.0917 
-8.20232 -7.8013 12.4991 -8.30722 -8.12555 12.87 -8.41794 -8.4853 13.2046 
-8.53135 -8.8745 13.5032 -8.64415 -9.2891 13.7657 -8.75287 -9.72565 13.9916 
-8.85385 -10.1814 14.1803 -8.94362 -10.6533 14.331 -9.01897 -11.1381 14.4436 
-9.07717 -11.6325 14.5187 -9.11612 -12.1328 14.5584 -9.13402 -12.6358 14.566 
-9.12951 -13.1387 14.5458 -9.10105 -13.6392 14.5029 -9.04683 -14.136 14.4429 
-8.96443 -14.6273 14.372 -8.85053 -15.1118 14.2971 -8.70097 -15.5871 14.2254 
-8.51036 -16.0495 14.166 -8.27407 -16.4931 14.1279 -7.98918 -16.9086 14.1211 
-7.65658 -17.2866 14.1526 -7.28405 -17.6187 14.2238 -6.88059 -17.9002 14.3331 
-6.45621 -18.1333 14.4733 -6.01918 -18.3219 14.6372 -5.57408 -18.4721 14.8184 
-5.12415 -18.5892 15.0109 -4.67076 -18.6778 15.2104 -4.2148 -18.7416 15.4133 
-3.75659 -18.7832 15.6168 -3.2963 -18.8051 15.8187 -2.834 -18.809 16.017 
-2.36983 -18.7966 16.2106 -1.90419 -18.7699 16.399 -1.4375 -18.7309 16.5826 
-0.970281 -18.6821 16.7625 -0.503054 -18.6265 16.9402 -0.0363463 -18.5672 17.1183 
0.429252 -18.5079 17.2992 0.892982 -18.4519 17.4857 1.35397 -18.4027 17.6807 
1.81112 -18.3639 17.8874 2.26288 -18.3384 18.1087 2.70656 -18.3271 18.3441 
3.13983 -18.3319 18.5954 3.56232 -18.3586 18.8731 3.97042 -18.4097 19.1801 
4.34817 -18.4736 19.489 4.69138 -18.5474 19.794 5.05092 -18.6731 20.1964 
5.42534 -18.8565 20.7076 5.60568 -18.9556 20.9729 
LINES 1 129
128 0 1 2 3 4 5 6 7 8 9 10 11 12 13 14 15 16 17 18 19 20 21 22 23 24 25 26 27 28 29 30 31 32 33 34 35 36 37 38 39 40 41 42 43 44 45 46 47 48 49 50 51 52 53 54 55 56 57 58 59 60 61 62 63 64 65 66 67 68 69 70 71 72 73 74 75 76 77 78 79 80 81 82 83 84 85 86 87 88 89 90 91 92 93 94 95 96 97 98 99 100 101 102 103 104 105 106 107 108 109 110 111 112 113 114 115 116 117 118 119 120 121 122 123 124 125 126 127 

CELL_DATA 1
FIELD FieldData 2
Length 1 1 double
57.519449017 
Tortuosity 1 1 double
0.99580677651 
POINT_DATA 128
SCALARS MaximumInscribedSphereRadius float
LOOKUP_TABLE default
1.116 0.994516 0.873033 0.812874 0.757654 0.81108 0.866579 0.814014 0.755958 
0.724348 0.6945 0.790385 0.896964 1.00808 1.11967 1.05934 0.977937 0.864247 
0.74599 0.812171 0.908291 1.02298 1.1411 1.20897 1.26629 1.30159 1.33171 
1.40518 1.48997 1.56797 1.64401 1.69707 1.74287 1.76562 1.78043 1.82979 
1.89205 1.90182 1.89041 1.81734 1.71753 1.58133 1.42833 1.34447 1.29434 
1.31644 1.37606 1.48248 1.61495 1.68129 1.70816 1.68604 1.63263 1.5327 
1.40103 1.32107 1.27864 1.25057 1.2333 1.20324 1.16312 1.16573 1.20421 
1.24516 1.28832 1.32494 1.35527 1.33303 1.25672 1.20492 1.18013 1.18205 
1.21533 1.23515 1.23824 1.24 1.24 1.26578 1.328 1.39044 1.45323 
1.46139 1.38108 1.37297 1.49027 1.65859 1.92209 2.01988 1.78473 1.58711 
1.47086 1.44201 1.61816 1.76075 1.81801 1.84612 1.79407 1.7332 1.64618 
1.5773 1.56693 1.55787 1.55349 1.5455 1.5234 1.48474 1.37394 1.27633 
1.24335 1.23057 1.33001 1.40522 1.32582 1.24244 1.12943 1.03466 1.10178 
1.16645 1.2045 1.24019 1.24302 1.24625 1.2566 1.26676 1.26457 1.26171 
1.25085 1.24 
TEXTURE_COORDINATES TCoords 2 float
0 0 0.00787402 0 0.015748 0 0.023622 0 0.0314961 
0 0.0393701 0 0.0472441 0 0.0551181 0 0.0629921 0 
0.0708661 0 0.0787402 0 0.0866142 0 0.0944882 0 0.102362 
0 0.110236 0 0.11811 0 0.125984 0 0.133858 0 
0.141732 0 0.149606 0 0.15748 0 0.165354 0 0.173228 
0 0.181102 0 0.188976 0 0.19685 0 0.204724 0 
0.212598 0 0.220472 0 0.228346 0 0.23622 0 0.244094 
0 0.251969 0 0.259843 0 0.267717 0 0.275591 0 
0.283465 0 0.291339 0 0.299213 0 0.307087 0 0.314961 
0 0.322835 0 0.330709 0 0.338583 0 0.346457 0 
0.354331 0 0.362205 0 0.370079 0 0.377953 0 0.385827 
0 0.393701 0 0.401575 0 0.409449 0 0.417323 0 
0.425197 0 0.433071 0 0.440945 0 0.448819 0 0.456693 
0 0.464567 0 0.472441 0 0.480315 0 0.488189 0 
0.496063 0 0.503937 0 0.511811 0 0.519685 0 0.527559 
0 0.535433 0 0.543307 0 0.551181 0 0.559055 0 
0.566929 0 0.574803 0 0.582677 0 0.590551 0 0.598425 
0 0.606299 0 0.614173 0 0.622047 0 0.629921 0 
0.637795 0 0.645669 0 0.653543 0 0.661417 0 0.669291 
0 0.677165 0 0.685039 0 0.692913 0 0.700787 0 
0.708661 0 0.716535 0 0.724409 0 0.732283 0 0.740157 
0 0.748031 0 0.755906 0 0.76378 0 0.771654 0 
0.779528 0 0.787402 0 0.795276 0 0.80315 0 0.811024 
0 0.818898 0 0.826772 0 0.834646 0 0.84252 0 
0.850394 0 0.858268 0 0.866142 0 0.874016 0 0.88189 
0 0.889764 0 0.897638 0 0.905512 0 0.913386 0 
0.92126 0 0.929134 0 0.937008 0 0.944882 0 0.952756 
0 0.96063 0 0.968504 0 0.976378 0 0.984252 0 
0.992126 0 1 0 
FIELD FieldData 7
Curvature 1 128 double
0 0.058805429283 0.10970484091 0.15671019118 0.19751989896 0.22992789455 0.25269373396 0.2661315875 0.27195739745 
0.2724657359 0.26956201018 0.26419762599 0.2562980226 0.24513114131 0.229917425 0.21037397256 0.186975369 0.16098254994 
0.13418112766 0.10876068826 0.087399603199 0.073438979904 0.069684752799 0.07539375113 0.086550851012 0.099492215876 0.11220036978 
0.12393314942 0.13474529864 0.1451813967 0.15611147794 0.16853294017 0.18337018919 0.2014450736 0.22324339348 0.24888610475 
0.2778393695 0.30870497167 0.33898801459 0.3651773368 0.3835610841 0.39122696095 0.38764568026 0.37481215277 0.35666469346 
0.33773158955 0.32203043289 0.31256647553 0.31130910424 0.3193504717 0.33693124306 0.36311591541 0.39511466652 0.42752207188 
0.4522179418 0.46037797883 0.44643781972 0.4112615683 0.36169436494 0.30648976952 0.25282468076 0.20502008295 0.16510864367 
0.1343942104 0.11443481502 0.10690925486 0.11180550065 0.12631346945 0.14655459483 0.16915243171 0.19133901959 0.21074640289 
0.2254862232 0.23436490899 0.23717496349 0.23455449737 0.22785272555 0.21849788216 0.20785055991 0.19680710539 0.18593449242 
0.17543949661 0.16538042669 0.15583081576 0.14698931009 0.13931081184 0.13359169362 0.13080344506 0.13196710421 0.13771256487 
0.147930314 0.16175541325 0.17766811487 0.19361224227 0.20740514756 0.21688752439 0.22050939783 0.21760393296 0.20862291073 
0.19486062798 0.17804908726 0.15983738629 0.14159174625 0.12414900419 0.10801360272 0.093247607164 0.079741062014 0.067188682026 
0.055370950031 0.044081975244 0.03349282788 0.024539685591 0.020155012504 0.023699279957 0.032963081859 0.044438149435 0.056366914934 
0.067709485761 0.077561089744 0.084934026224 0.088933451742 0.088651314601 0.083567655512 0.073534591749 0.058891419249 0.040522253247 
0.019613137698 0 
Torsion 1 128 double
0 0 -0.034497719634 -0.04962445736 -0.06734163167 -0.087647821951 -0.1101142618 -0.13342973331 -0.15536155788 
-0.17319944014 -0.18480101876 -0.18953017013 -0.18876232535 -0.1854691662 -0.18333906869 -0.18654037205 -0.20010140415 -0.23111606888 
-0.29122686195 -0.39789410659 -0.56237697889 -0.72628903501 -0.71637242968 -0.51061251801 -0.28440448233 -0.11430810856 0.0074481265916 
0.098790383149 0.17063486516 0.2276335376 0.27074923148 0.29989119784 0.31511155283 0.31758989286 0.30995369548 0.29508222426 
0.27613450385 0.25565464599 0.23578504275 0.21827128693 0.20417703063 0.1944187209 0.18912263409 0.18805629489 0.19040832208 
0.19420542209 0.19668099382 0.19469626595 0.18571527965 0.16902773439 0.14617452946 0.12067747323 0.095986074339 0.074891677335 
0.059057251778 0.049208758592 0.045932487274 0.049976732552 0.062891131079 0.087513326721 0.12879176827 0.19417086756 0.29335254095 
0.42984479407 0.57058439022 0.62369174831 0.5382575268 0.39255346934 0.26661612932 0.17955445979 0.12389777242 0.089717377888 
0.070227425889 0.060974247057 0.059247850741 0.063339296047 0.071863877307 0.083966404793 0.098592890042 0.11519453284 0.13370890167 
0.15466085709 0.17938890451 0.209541633 0.24642930376 0.28906643141 0.33310009619 0.36797787325 0.38080391213 0.36470502973 
0.32378732879 0.27080814952 0.2169698864 0.16867627655 0.12761566574 0.093335579078 0.064570515359 0.039815494481 0.017790015337 
-0.0023414916964 -0.020789181635 -0.037627821428 -0.052137312633 -0.062822930371 -0.067947501311 -0.064873600111 -0.050895068206 -0.020677262579 
0.035030317351 0.13739618861 0.3438489923 0.76617457325 1.228464045 0.89479371529 0.43835946669 0.21619703229 0.11249100441 
0.060155357183 0.031740283282 0.015696855607 0.0065575422584 0.0014858602541 -0.00099661370913 -0.002189845546 -0.0023489766251 -0.0018961297422 
0 0 
Abscissas 1 128 double
0 0.50298978944 1.0059795789 1.5089689673 2.0119583234 2.5149454755 3.0179325856 3.5209235902 4.0239147926 
4.5269053656 5.0298958966 5.5328838333 6.0358715493 6.5388629611 7.0418547569 7.5448418449 8.0478283557 8.5508196794 
9.0538116838 9.5568022612 10.059792607 10.562782217 11.065771691 11.568759336 12.071746598 12.574739018 13.077732652 
13.580722056 14.083710355 14.586699115 15.089688007 15.592676785 16.095665526 16.598672018 17.101684624 17.604652464 
18.107603582 18.610583187 19.113574289 19.616562209 20.11954875 20.622539321 21.125531752 21.628523178 22.131514113 
22.634495615 23.137472214 23.640456996 24.143446335 24.646438776 25.149433069 25.652424851 26.155415028 26.658413282 
27.161417047 27.664414331 28.167406911 28.670397208 29.173385788 29.676374096 30.179362187 30.682351872 31.185342895 
31.688333698 32.191324304 32.694313874 33.197302449 33.700291739 34.203281767 34.706272827 35.209265025 35.712249351 
36.215224444 36.718212014 37.221215102 37.724210794 38.227196702 38.730187686 39.233185841 39.73618542 40.239187152 
40.742174072 41.245137004 41.748110706 42.251103116 42.754092793 43.257077366 43.760065986 44.263062735 44.766061853 
45.269066109 45.77205944 46.275027144 46.778004458 47.281006202 47.784004633 48.286993951 48.78998325 49.292972494 
49.795959685 50.298940255 50.801923081 51.304913893 51.807906532 52.310906319 52.81390255 53.31688328 53.819866998 
54.322865344 54.825861884 55.328848386 55.831835441 56.334826014 56.837816063 57.340802211 57.843789106 58.34678263 
58.849775579 59.352762275 59.855748631 60.358730244 60.861712324 61.364702585 61.867693146 62.370703513 62.87371153 
63.376691927 63.879672324 
ParallelTransportNormals 3 128 double
-0.63060463619 0 0.77610424095 -0.49288489115 -0.11330403013 0.8400355898 -0.35516514612 -0.22660806026 0.90396693865 
-0.23341193122 -0.32269005432 0.90511838345 -0.11294460021 -0.4173850508 0.90121377246 -0.0086423293363 -0.4924254116 0.85949347 
0.095351517708 -0.56709076865 0.81705165706 0.17719128195 -0.61730910113 0.75823737 0.25790537944 -0.66628526065 0.69859118437 
0.33243636644 -0.69922670218 0.6229228084 0.40655574555 -0.73110071712 0.5461878398 0.47935542982 -0.74295981163 0.45093632203 
0.55204286855 -0.75311655362 0.35410989447 0.61824693266 -0.7346785133 0.24884007197 0.68377726213 -0.71326898101 0.14269283484 
0.73145993171 -0.6713821385 0.057135793477 0.77695419166 -0.626984449 -0.025896559323 0.80169620729 -0.59072543722 -0.071015138921 
0.82350302649 -0.55561755961 -0.11077119626 0.82883279911 -0.54643469252 -0.11998203777 0.83148796613 -0.54146005401 -0.12423468454 
0.8201762192 -0.56060012369 -0.10935841985 0.80627470465 -0.58421158132 -0.090935241641 0.77959654743 -0.62058353672 -0.061134557768 
0.75023622088 -0.65963427218 -0.028945421978 0.71062864459 -0.70014239777 0.0077358791659 0.66861124557 -0.74099325451 0.045473592754 
0.62052952509 -0.77697512943 0.08077475565 0.57086453129 -0.81168581033 0.11543978378 0.52098653421 -0.83953638246 0.14193290108 
0.47104720037 -0.8654115069 0.16607282212 0.42944708346 -0.8840691917 0.17943390813 0.39048066415 -0.90044745941 0.18939081457 
0.36955065099 -0.90900587507 0.19210190652 0.35483358287 -0.91487061047 0.19231705516 0.36390532726 -0.91042072623 0.19575473069 
0.3818628392 -0.90211805143 0.20039610752 0.42028572138 -0.87734913634 0.22323756096 0.46696848698 -0.84593439841 0.25342461866 
0.51331355367 -0.79346764008 0.31140956954 0.55951224125 -0.73187566496 0.38144380579 0.57981254885 -0.659657329 0.46469928247 
0.58816754227 -0.58253771279 0.5540528962 0.57225314377 -0.51134859824 0.63336703946 0.54449552463 -0.44305350923 0.70778202149 
0.5058186881 -0.38335418631 0.76822918063 0.46146868231 -0.3281208644 0.82141924244 0.40919658219 -0.27573665749 0.86603392955 
0.35251285023 -0.22493905709 0.90587318803 0.28240535559 -0.17093737426 0.93927331494 0.20428489748 -0.11502309836 0.96882977094 
0.099236481763 -0.049954995721 0.98512642818 -0.023023111188 0.020963834129 0.99294799977 -0.18225905821 0.097007145559 0.95918496889 
-0.36672320054 0.17654678391 0.89704963092 -0.54002797937 0.23049525329 0.78251653881 -0.70523364414 0.26587045936 0.62995480933 
-0.81742026207 0.27442818719 0.48660621139 -0.88976639437 0.2628342635 0.35018070348 -0.93444302325 0.24698721343 0.24412520649 
-0.95730504075 0.22778700237 0.16201339854 -0.97143318065 0.21110706278 0.09858719166 -0.97822926187 0.19654288196 0.050847479345 
-0.9823086796 0.18496746502 0.013608121109 -0.98394903345 0.17607540802 -0.014203851574 -0.98477326194 0.16962876025 -0.035507362114 
-0.98481313295 0.16553233352 -0.050555754094 -0.98469077625 0.16296034429 -0.06157651039 -0.98440149358 0.16195694165 -0.068452987022 
-0.98400822349 0.16161270942 -0.074736884793 -0.98350051741 0.1619938805 -0.080368661878 -0.98257252254 0.16369990556 -0.087656153046 
-0.98115153 0.16695998102 -0.096885792678 -0.97948505257 0.17133549493 -0.10572768027 -0.97751329202 0.17709815962 -0.11408736236 
-0.97594925796 0.18183086537 -0.12018937854 -0.97492458187 0.18520109761 -0.1233048581 -0.97477696072 0.18547343954 -0.12406916706 
-0.97586865545 0.18136833083 -0.12151117204 -0.97779344102 0.17297890348 -0.11758493077 -0.98097766979 0.1581125643 -0.11159021352 
-0.98439736246 0.1390979479 -0.10569186268 -0.98819833901 0.11336607556 -0.099949556821 -0.99148782441 0.084453454409 -0.095376931179 
-0.99388871103 0.050015010447 -0.092836357109 -0.99517632701 0.0129309258 -0.0917998216 -0.99438663689 -0.029089789111 -0.093569745154 
-0.99173680545 -0.074405163124 -0.096789952487 -0.98534963154 -0.12634007147 -0.10292402828 -0.97548255562 -0.18329280294 -0.11023633827 
-0.95806922538 -0.25112680905 -0.12010367846 -0.9338978883 -0.32549360247 -0.12994956815 -0.89387429558 -0.41518435414 -0.13974514139 
-0.84420234462 -0.5081187424 -0.14640184791 -0.77000004953 -0.60929987274 -0.14507818321 -0.69053568536 -0.70472504128 -0.13883271252 
-0.59660132245 -0.78432207098 -0.11905292194 -0.50553996706 -0.85484202844 -0.097255533816 -0.42300270068 -0.89843070542 -0.069472021097 
-0.34544189937 -0.93640454366 -0.042329150951 -0.28393154129 -0.95626901131 -0.01725252604 -0.22578946949 -0.97362064496 0.0067594900317 
-0.17956611335 -0.98208058969 0.027004376769 -0.13519675118 -0.98942094468 0.046452395908 -0.09808077606 -0.99238112491 0.062782827179 
-0.06212136511 -0.99478205379 0.078512536324 -0.031201473221 -0.99474614614 0.09162470752 -0.0014796729132 -0.99445726788 0.10413800871 
0.022376595947 -0.99292991412 0.11371940477 0.044672105696 -0.99141431718 0.12264071384 0.058300994145 -0.98996400378 0.12789667575 
0.070148947863 -0.98870209403 0.13246593673 0.070634326961 -0.98864222182 0.13265396432 0.069475178673 -0.98876615036 0.13216220722 
0.056064746847 -0.99025934467 0.12660623829 0.041483576149 -0.991780713 0.12042330784 0.016506579502 -0.99355225856 0.1086731386 
-0.0090783361733 -0.99519033482 0.09639694153 -0.04127903529 -0.9953759084 0.078396156164 -0.07390759815 -0.99532511465 0.059808404898 
-0.11251130651 -0.99197343553 0.033023635979 -0.1508419061 -0.98842811903 0.0060885568861 -0.18438804644 -0.98149056407 -0.023479732723 
-0.21798390984 -0.97444797248 -0.053252049972 -0.25485131118 -0.96049447569 -0.096448405295 -0.28882805277 -0.94763502975 -0.13625786701 
-0.28882805277 -0.94763502975 -0.13625786701 -0.28882805277 -0.94763502975 -0.13625786701 
FrenetTangent 3 128 double
-0.79392118519 0.60342600712 -0.074607008003 -0.79392118519 0.60342600712 -0.074607008003 -0.80019530668 0.59857393993 -0.037372578271 
-0.80817856656 0.58856802139 0.020858781146 -0.81526573955 0.57092619353 0.096876495889 -0.81874791827 0.54317612914 0.18604176698 
-0.81646902494 0.50349270993 0.28261886411 -0.80728426044 0.45109849783 0.38052893202 -0.79113304108 0.38630131735 0.4742149339 
-0.76876458163 0.31026211545 0.55923021892 -0.74134003363 0.22472678043 0.63238661331 -0.71013559321 0.13188778932 0.69160180038 
-0.6764336792 0.034380343217 0.73570066579 -0.64156473556 -0.064708113222 0.76433471082 -0.60699159939 -0.16196037022 0.77802958604 
-0.5743318459 -0.25393967957 0.77824004647 -0.5452817385 -0.33760461511 0.76726198232 -0.52145879095 -0.41068071125 0.74794524048 
-0.50422831513 -0.47184432697 0.72326809506 -0.49458373564 -0.52067984214 0.69590188276 -0.49309632267 -0.55748314119 0.66788364545 
-0.49992095465 -0.58301674122 0.64044556252 -0.51482497404 -0.59830856568 0.61398868584 -0.53721927637 -0.60453617183 0.58815938831 
-0.5661884268 -0.60299107278 0.56198970765 -0.60051984653 -0.59509010692 0.53408208972 -0.63873833637 -0.58240178452 0.50281358279 
-0.67915563287 -0.56664895224 0.46653680591 -0.71992577013 -0.54967070244 0.4237558311 -0.75908566321 -0.53335010951 0.3732648076 
-0.7945813232 -0.51951602209 0.31423498153 -0.82427430282 -0.50983530876 0.24625156174 -0.84591396193 -0.50572261024 0.16933461107 
-0.85710872012 -0.50824931118 0.083948076729 -0.85530273379 -0.51805119664 -0.0089549555189 -0.8377941457 -0.53523092751 -0.10783702367 
-0.80186123496 -0.55923213677 -0.21042332826 -0.7450621266 -0.58872138398 -0.31351165776 -0.66577435545 -0.62152228823 -0.41286142089 
-0.56393894012 -0.65471056482 -0.50331595259 -0.44175828429 -0.68498223068 -0.5793521916 -0.30395984294 -0.70927166787 -0.63603625293 
-0.15723421685 -0.72544603152 -0.67007869418 -0.0089023658194 -0.73272394275 -0.68046775942 0.13457521005 -0.73161020723 -0.66830832519 
0.26861325199 -0.72342346259 -0.6360074014 0.3907136205 -0.70966787217 -0.58627159061 0.50003665238 -0.69151404514 -0.52131724664 
0.59666831801 -0.66948198571 -0.44247122968 0.6808546497 -0.64329972162 -0.35014627535 0.75232682873 -0.6118880832 -0.24412561605 
0.80976846666 -0.57346626724 -0.12414294481 0.85051683966 -0.52586675125 0.0092339254906 0.87075491744 -0.46714656047 0.15349255614 
0.86649152813 -0.39655415176 0.30321153739 0.83538661521 -0.31557011585 0.45004966961 0.77868085671 -0.22832932871 0.58439870041 
0.70181524829 -0.14083657822 0.69829822819 0.61299286632 -0.059230942785 0.78786511616 0.52061095888 0.011781099614 0.85371273575 
0.43123846547 0.069489694813 0.89955798491 0.34889516079 0.11284253769 0.93034333902 0.27537054785 0.14175638909 0.95082921049 
0.21090263992 0.15651777632 0.96489494878 0.1547991147 0.15742709658 0.97532248172 0.10591440267 0.14465944693 0.98379661705 
0.062954793801 0.11827583779 0.99098310789 0.024677699371 0.078345479138 0.99662078899 -0.0099655508363 0.025147792206 0.99963407122 
-0.041734993395 -0.040576534472 0.99830443011 -0.071032702317 -0.11738886965 0.99054238096 -0.097884471104 -0.20300195904 0.97427349083 
-0.12198895433 -0.29432468431 0.94788800775 -0.14281201934 -0.38775247585 0.91063315589 -0.15972973892 -0.47964558439 0.86280155533 
-0.17216068967 -0.56682944637 0.80564575072 -0.17965117339 -0.64695407467 0.74106401962 -0.18190509452 -0.71859913567 0.67121220102 
-0.17875747763 -0.78116321728 0.59818875964 -0.17014670166 -0.83463828211 0.52385975027 -0.15608109825 -0.87936879227 0.44983243319 
-0.13661668594 -0.91587469938 0.37750419356 -0.11184697028 -0.94474058962 0.30814846027 -0.081884934647 -0.96657131747 0.24297066845 
-0.046842169913 -0.98197094203 0.18313623377 -0.0068072508315 -0.99152099151 0.12976819614 0.038167981941 -0.99574260175 0.083903970212 
0.088077244658 -0.99502897389 0.046473003953 0.1429244597 -0.98956530708 0.018251077983 0.20266534553 -0.97924804237 -0.00017096499578 
0.26709748601 -0.96363283947 -0.0084073579144 0.33570750871 -0.94194488849 -0.0063478850057 0.40753025301 -0.91317347395 0.0057705596658 
0.48102014325 -0.87628588268 0.027252038612 0.55405643545 -0.8305359273 0.056846633991 0.62411986078 -0.77580751327 0.092720557255 
0.6886470556 -0.71287764635 0.13255449498 0.74548767731 -0.64346185462 0.17379575547 0.7932960638 -0.56999013267 0.21399206483 
0.83170974511 -0.49517977539 0.25110931869 0.86125796057 -0.42158394085 0.28372822589 0.88308025948 -0.35127302708 0.31108924084 
0.89860146065 -0.28569737283 0.3330051442 0.90925256846 -0.22572280829 0.34972700864 0.91629281483 -0.17175221431 0.36181301024 
0.92073016491 -0.12387681571 0.37001418616 0.92330804958 -0.082022428533 0.37519936941 0.92453958626 -0.046052658909 0.37829314829 
0.92474720129 -0.015825353293 0.3802527737 0.92410988658 0.008778725502 0.38202598277 0.92269768387 0.027843993769 0.38451748489 
0.92048759112 0.041431798359 0.38856917103 0.91737870705 0.049593208511 0.39491368871 0.91318867351 0.052395292925 0.40415489586 
0.9076548882 0.049951755032 0.41673423918 0.90044454235 0.042451735819 0.4328943015 0.89118163764 0.030182246207 0.45264149252 
0.87949559618 0.0135804104 0.47571322113 0.86510168434 -0.0067287436991 0.50155139295 0.84791544914 -0.029896847101 0.52928779473 
0.82817024078 -0.054847210332 0.55778655039 0.80652288174 -0.080300194176 0.58572409892 0.78409584304 -0.10484378382 0.6117201075 
0.76241171235 -0.12705597537 0.63449598895 0.74323068444 -0.14561814905 0.65299579201 0.72829182325 -0.15944468493 0.66645961066 
0.71903178972 -0.16776014174 0.67442554831 0.71903178972 -0.16776014174 0.67442554831 
FrenetNormal 3 128 double
-0.17585931255 -0.11043233955 0.97820151327 -0.17585931255 -0.11043233955 0.97820151327 -0.15182840501 -0.14189675802 0.97816841367 
-0.11414348073 -0.1912829507 0.97487542721 -0.065096821126 -0.25658622378 0.96432666335 -0.0080940845895 -0.33491542793 0.94221342695 
0.052607286479 -0.42257164139 0.90480145961 0.11255086229 -0.515271946 0.84960409902 0.16791681488 -0.60834830891 0.77570373103 
0.21612811067 -0.69694916998 0.68377664061 0.25604260252 -0.77629824012 0.576023635 0.28759559754 -0.84227240006 0.45592321325 
0.31121469784 -0.89200558392 0.32782838513 0.32702271478 -0.92441772295 0.19623459817 0.3343823511 -0.94018235151 0.065158185865 
0.33153967862 -0.94136902917 -0.062496339309 0.31526774132 -0.93070353526 -0.18546476953 0.28010531098 -0.91036973513 -0.30457833166 
0.21672440294 -0.87986986668 -0.42291790087 0.10917559519 -0.83156491853 -0.54459202682 -0.064638619503 -0.74210572033 -0.66715886319 
-0.31010126762 -0.56995865772 -0.7609101999 -0.55805139704 -0.30979752935 -0.76980785205 -0.70895502719 -0.054114822891 -0.70317448429 
-0.76180964491 0.12244423874 -0.63612378773 -0.76208395838 0.22373220441 -0.60759521155 -0.73623310359 0.27275900587 -0.61932490819 
-0.69281559436 0.28499436429 -0.66240830651 -0.63257909195 0.26844813378 -0.72648419935 -0.55387633536 0.22784891978 -0.80081575589 
-0.45536790169 0.16758558015 -0.87438844196 -0.33760792108 0.093427777079 -0.93663874685 -0.20343761774 0.012478613414 -0.97900838602 
-0.057755971133 -0.067122873674 -0.99607166792 0.0939255894 -0.13802794852 -0.98596463886 0.24635941607 -0.19432262298 -0.94949763365 
0.39513900386 -0.23214193335 -0.88880554139 0.53644433647 -0.24958465274 -0.80618544702 0.66640497931 -0.24640488696 -0.70369669264 
0.78071850898 -0.22402322541 -0.58334569873 0.87471799942 -0.18540772952 -0.44776377179 0.94411943101 -0.13493867291 -0.30071590336 
0.98606542042 -0.077994401342 -0.14694168918 0.99976595979 -0.019940045058 0.0083916777049 0.98639167868 0.034621469383 0.16072588491 
0.94829482858 0.08271354039 0.30642354402 0.88821970419 0.12343694797 0.44252579243 0.80886375918 0.15789682884 0.56639916183 
0.71286311935 0.18897310561 0.67536311598 0.60270937791 0.22047422722 0.76689798599 0.48047332137 0.25609968849 0.83878384403 
0.34746297834 0.29818511201 0.88901918858 0.20441674566 0.34669036273 0.91543409729 0.052804699305 0.39918732769 0.91534755211 
-0.10392848897 0.45078851443 0.88655997228 -0.25942923907 0.49547414412 0.82897638231 -0.4055939994 0.52745609204 0.74651428561 
-0.53512919396 0.5428063714 0.64730053989 -0.64424774308 0.53977991982 0.54183252366 -0.73364310897 0.51763941451 0.44024677762 
-0.80752639255 0.4744163635 0.35047145301 -0.87147758168 0.40417292941 0.2777968102 -0.92868687143 0.29481053426 0.22500543042 
-0.9730880691 0.12737009401 0.1920324684 -0.97864399352 -0.11071853288 0.17319740305 -0.90786968459 -0.38954042448 0.1550190101 
-0.76609748459 -0.63066136291 0.12393905532 -0.61106555936 -0.78781996308 0.077062234202 -0.48390991554 -0.8749490295 0.017186896701 
-0.3902773207 -0.91913147684 -0.053674400153 -0.32153672081 -0.93734729201 -0.13414242924 -0.26834102385 -0.937332101 -0.22226476857 
-0.22345728811 -0.92235781289 -0.31515536706 -0.18181705353 -0.89412877455 -0.40923867555 -0.1401579191 -0.85414980549 -0.500783254 
-0.09619508627 -0.80427433457 -0.58642075349 -0.048477285529 -0.74658277563 -0.66352401005 0.00401469514 -0.68313770571 -0.73027854772 
0.062054516419 -0.61572221973 -0.78551599928 0.12588967196 -0.54566603265 -0.82849283118 0.19586997837 -0.4739249404 -0.85850457334 
0.27207426312 -0.40111306658 -0.87469074716 0.35493318723 -0.32761927332 -0.8756072432 0.44484441369 -0.25360383984 -0.858952001 
0.54209418089 -0.17898111877 -0.82103572284 0.64528786576 -0.1034913028 -0.75689703431 0.74948061001 -0.027009214291 -0.66147510729 
0.84509269254 0.049944982727 -0.53228172965 0.91823178823 0.12569485182 -0.37556781986 0.95818392081 0.19834192216 -0.20626210465 
0.96262796913 0.26720416215 -0.044151203558 0.93781321154 0.33358769223 0.096050152855 0.89264492778 0.39968580737 0.20841374307 
0.83421070306 0.46704205108 0.29319656448 0.7667918821 0.5357334692 0.35358147508 0.69300328974 0.60446316025 0.39290040508 
0.61491507024 0.67103763943 0.41423175018 0.53484058296 0.73311282174 0.42010848768 0.45543484062 0.78881486566 0.41273504052 
0.37942619921 0.83711432449 0.39404995507 0.30917363696 0.877824026 0.3658369057 0.2463281455 0.9113417396 0.32981612816 
0.19186837957 0.93841204049 0.28734885972 0.14577485086 0.95966666667 0.24039463751 0.10739341846 0.97566379116 0.19117222679 
0.075307896029 0.9868541981 0.1429947988 0.047464669491 0.99380892954 0.10045355499 0.021279987803 0.99736129517 0.069408998115 
-0.0076589754371 0.99815891521 0.060167433765 -0.045652364945 0.99511219843 0.087564685299 -0.10635658299 0.97706777362 0.18446366311 
-0.21329509753 0.88644327511 0.4107596881 -0.35675303093 0.54238934216 0.76061887725 -0.40525225302 0.011882552895 0.91412768056 
-0.38326216877 -0.30610062082 0.87144278063 -0.36936858085 -0.45095586568 0.81253040478 -0.37250329782 -0.52078832414 0.76812812379 
-0.3887177934 -0.55619591119 0.73453698714 -0.41387460708 -0.57449007648 0.70616496772 -0.44500097876 -0.58276360165 0.67997111225 
-0.47932477953 -0.585104268 0.65414123192 -0.51447996787 -0.58341746361 0.62843808432 -0.54808395681 -0.57942225097 0.60321955486 
-0.57814554693 -0.57416500717 0.57972603108 -0.60297253487 -0.56869149851 0.55947663196 -0.6212222912 -0.56415211405 0.54388901177 
-0.6321540526 -0.56106684271 0.53440177001 -0.6321540526 -0.56106684271 0.53440177001 
FrenetBinormal 3 128 double
0.58203320687 0.78973524191 0.19379265669 0.58203320687 0.78973524191 0.19379265669 0.58020307358 0.78839999271 0.20442564638 
0.5777704305 0.78549253146 0.22177198351 0.57541652548 0.77987613844 0.24635143779 0.57409610008 0.76992944408 0.27860782295 
0.57498765614 0.75361017704 0.31852927078 0.57933101613 0.72870087616 0.36519940694 0.58814322626 0.69331351297 0.41641796087 
0.60190502391 0.64652863369 0.46873347225 0.62036855193 0.58894729521 0.51796133372 0.64264781298 0.52266893453 0.56019726288 
0.66751995438 0.45071502111 0.59268295087 0.69386658235 0.37585201022 0.61423483482 0.72093664184 0.29970983365 0.62483947864 
0.74848137738 0.22212381698 0.62484929195 0.77670720155 0.1407624002 0.61393148621 0.80599115634 0.050678385606 0.58975414973 
0.83593321467 -0.056497334523 0.54591548045 0.862245683 -0.19337085678 0.4681240155 0.86757009252 -0.37214465891 0.32989466108 
0.80865087827 -0.57899793432 0.10414004578 0.65079480973 -0.73895355134 -0.17439542593 0.45692255199 -0.79473744274 -0.39951743214 
0.31476456325 -0.78829510626 -0.52869092594 0.24208253614 -0.77188837623 -0.58786425333 0.22354899874 -0.76577456611 -0.60300510699 