# vtk DataFile Version 4.2
vtk output
ASCII
DATASET POLYDATA
POINTS 128 float
0 0 0 -0.275424 0.0431193 0.188722 -0.828348 0.100297 0.543949 
-1.31763 0.0813904 0.802202 -1.74613 -0.0132011 0.964367 -2.19982 -0.159816 1.09625 
-2.66399 -0.355464 1.19077 -3.10507 -0.5995 1.22857 -3.52402 -0.877106 1.2216 
-3.93062 -1.17132 1.18875 -4.32904 -1.47464 1.13837 -4.72195 -1.78252 1.07564 
-5.11307 -2.09094 1.00566 -5.50607 -2.39636 0.93289 -5.90254 -2.69692 0.858618 
-6.30323 -2.99143 0.782686 -6.70804 -3.27915 0.702761 -7.11631 -3.55966 0.615151 
-7.52596 -3.83314 0.512624 -7.93355 -4.10013 0.385833 -8.3306 -4.36164 0.220372 
-8.70561 -4.6187 0.00106566 -9.04016 -4.87103 -0.279429 -9.31442 -5.1179 -0.623152 
-9.51863 -5.35897 -1.01744 -9.64875 -5.59432 -1.44387 -9.71125 -5.82606 -1.88735 
-9.71704 -6.05715 -2.33494 -9.67541 -6.29032 -2.77923 -9.59467 -6.52817 -3.21549 
-9.48127 -6.77293 -3.6404 -9.34057 -7.02677 -4.05133 -9.17645 -7.29237 -4.44605 
-8.99215 -7.57265 -4.82227 -8.79157 -7.87009 -5.17513 -8.5786 -8.18767 -5.49839 
-8.35398 -8.53544 -5.78553 -8.11929 -8.92629 -6.02505 -7.90212 -9.36326 -6.15759 
-7.74365 -9.83871 -6.10404 -7.67022 -10.2922 -5.86879 -7.69472 -10.6411 -5.50697 
-7.78978 -10.8916 -5.0748 -7.90895 -11.0957 -4.62517 -8.03216 -11.2781 -4.1746 
-8.15492 -11.4471 -3.71842 -8.27048 -11.6111 -3.25666 -8.37064 -11.7781 -2.79232 
-8.44822 -11.9543 -2.32752 -8.49684 -12.144 -1.8639 -8.51131 -12.3505 -1.40496 
-8.48755 -12.576 -0.955444 -8.42524 -12.8207 -0.519792 -8.32686 -13.0839 -0.102095 
-8.19756 -13.3641 0.295646 -8.04438 -13.6597 0.673087 -7.87498 -13.9692 1.03184 
-7.69739 -14.2915 1.37498 -7.51839 -14.6256 1.70568 -7.34371 -14.971 2.0271 
-7.1774 -15.3267 2.34156 -7.02205 -15.692 2.65063 -6.87876 -16.0659 2.95512 
-6.74723 -16.4477 3.2552 -6.62601 -16.8363 3.5507 -6.5126 -17.2311 3.84115 
-6.40371 -17.6311 4.12602 -6.29539 -18.0356 4.40473 -6.18345 -18.4437 4.67676 
-6.0635 -18.8542 4.94167 -5.93156 -19.2657 5.19918 -5.78414 -19.6767 5.44924 
-5.61835 -20.085 5.69189 -5.43203 -20.4888 5.92729 -5.22347 -20.8857 6.15576 
-4.99149 -21.2731 6.37775 -4.73526 -21.6484 6.59387 -4.45431 -22.0088 6.80484 
-4.14846 -22.3509 7.01145 -3.81782 -22.6714 7.21456 -3.46283 -22.9667 7.41495 
-3.08435 -23.2328 7.6134 -2.68386 -23.4656 7.81056 -2.26358 -23.6611 8.00704 
-1.82642 -23.816 8.20321 -1.37618 -23.9274 8.39913 -0.916987 -23.9939 8.59479 
-0.453439 -24.0159 8.79008 0.0102852 -23.9951 8.98495 0.470694 -23.9351 9.17944 
0.92512 -23.8403 9.37381 1.37215 -23.716 9.5687 1.81104 -23.5677 9.76491 
2.24205 -23.4006 9.96354 2.66579 -23.2202 10.1659 3.08332 -23.0316 10.3737 
3.49582 -22.8402 10.5888 3.9045 -22.6511 10.813 4.31043 -22.4699 11.0485 
4.71431 -22.3025 11.2976 5.11637 -22.1556 11.5622 5.51588 -22.0365 11.8443 
5.91127 -21.953 12.1448 6.29943 -21.9131 12.4631 6.67639 -21.9242 12.7974 
7.0367 -21.9917 13.1431 7.37505 -22.1184 13.4946 7.68691 -22.3025 13.845 
7.96916 -22.5399 14.1882 8.22177 -22.8228 14.5199 8.44574 -23.1432 14.8373 
8.64365 -23.4936 15.1398 8.81819 -23.8678 15.4276 8.97173 -24.2609 15.7018 
9.10639 -24.669 15.9635 9.22363 -25.0892 16.2141 9.32451 -25.5191 16.4548 
9.40909 -25.9576 16.687 9.47753 -26.4033 16.9118 9.5308 -26.8528 17.1293 
9.56872 -27.3049 17.3403 9.587 -27.7662 17.5489 9.58378 -28.2365 17.7562 
9.56842 -28.6871 17.951 9.54316 -29.1124 18.1322 9.47385 -29.6187 18.3471 
9.35266 -30.2158 18.6012 9.28407 -30.518 18.7301 
LINES 1 129
128 0 1 2 3 4 5 6 7 8 9 10 11 12 13 14 15 16 17 18 19 20 21 22 23 24 25 26 27 28 29 30 31 32 33 34 35 36 37 38 39 40 41 42 43 44 45 46 47 48 49 50 51 52 53 54 55 56 57 58 59 60 61 62 63 64 65 66 67 68 69 70 71 72 73 74 75 76 77 78 79 80 81 82 83 84 85 86 87 88 89 90 91 92 93 94 95 96 97 98 99 100 101 102 103 104 105 106 107 108 109 110 111 112 113 114 115 116 117 118 119 120 121 122 123 124 125 126 127 

CELL_DATA 1
FIELD FieldData 2
Length 1 1 double
59.569804619 
Tortuosity 1 1 double
0.61037181392 
POINT_DATA 128
SCALARS MaximumInscribedSphereRadius float
LOOKUP_TABLE default
0.93 1.0747 1.21939 1.33998 1.45865 1.41191 1.36271 1.31667 1.27078 
1.25604 1.24336 1.2413 1.24016 1.26836 1.29969 1.44842 1.61219 1.67455 
1.72169 1.66087 1.58137 1.51632 1.45412 1.44508 1.44765 1.48294 1.52605 
1.54091 1.54833 1.50491 1.44676 1.32243 1.17704 1.11579 1.08379 1.19818 
1.36801 1.4062 1.39021 1.33401 1.25983 1.28444 1.34509 1.41238 1.48256 
1.45374 1.37913 1.34165 1.32274 1.36319 1.43563 1.44224 1.41074 1.37617 
1.33972 1.37365 1.45437 1.54162 1.63351 1.70687 1.76605 1.76643 1.71867 
1.6956 1.69417 1.7698 1.91772 2.01157 2.05111 2.03059 1.94553 1.85947 
1.77226 1.7018 1.652 1.64487 1.69398 1.72712 1.73767 1.68414 1.53363 
1.43161 1.40824 1.45069 1.60765 1.72245 1.75854 1.76552 1.71409 1.66727 
1.63044 1.59652 1.56943 1.55008 1.55034 1.56535 1.6211 1.70499 1.87397 
1.98812 1.92034 1.81129 1.55155 1.37061 1.50759 1.64741 1.79996 1.93484 
1.98194 2.01849 1.99611 1.96999 1.91995 1.87492 1.86706 1.86 1.86 
1.86 1.86 1.86 1.86 1.86002 1.86046 1.86176 1.92599 1.99208 
2.08104 2.17 
TEXTURE_COORDINATES TCoords 2 float
0 0 0.00787402 0 0.015748 0 0.023622 0 0.0314961 
0 0.0393701 0 0.0472441 0 0.0551181 0 0.0629921 0 
0.0708661 0 0.0787402 0 0.0866142 0 0.0944882 0 0.102362 
0 0.110236 0 0.11811 0 0.125984 0 0.133858 0 
0.141732 0 0.149606 0 0.15748 0 0.165354 0 0.173228 
0 0.181102 0 0.188976 0 0.19685 0 0.204724 0 
0.212598 0 0.220472 0 0.228346 0 0.23622 0 0.244094 
0 0.251969 0 0.259843 0 0.267717 0 0.275591 0 
0.283465 0 0.291339 0 0.299213 0 0.307087 0 0.314961 
0 0.322835 0 0.330709 0 0.338583 0 0.346457 0 
0.354331 0 0.362205 0 0.370079 0 0.377953 0 0.385827 
0 0.393701 0 0.401575 0 0.409449 0 0.417323 0 
0.425197 0 0.433071 0 0.440945 0 0.448819 0 0.456693 
0 0.464567 0 0.472441 0 0.480315 0 0.488189 0 
0.496063 0 0.503937 0 0.511811 0 0.519685 0 0.527559 
0 0.535433 0 0.543307 0 0.551181 0 0.559055 0 
0.566929 0 0.574803 0 0.582677 0 0.590551 0 0.598425 
0 0.606299 0 0.614173 0 0.622047 0 0.629921 0 
0.637795 0 0.645669 0 0.653543 0 0.661417 0 0.669291 
0 0.677165 0 0.685039 0 0.692913 0 0.700787 0 
0.708661 0 0.716535 0 0.724409 0 0.732283 0 0.740157 
0 0.748031 0 0.755906 0 0.76378 0 0.771654 0 
0.779528 0 0.787402 0 0.795276 0 0.80315 0 0.811024 
0 0.818898 0 0.826772 0 0.834646 0 0.84252 0 
0.850394 0 0.858268 0 0.866142 0 0.874016 0 0.88189 
0 0.889764 0 0.897638 0 0.905512 0 0.913386 0 
0.92126 0 0.929134 0 0.937008 0 0.944882 0 0.952756 
0 0.96063 0 0.968504 0 0.976378 0 0.984252 0 
0.992126 0 1 0 
FIELD FieldData 7
Curvature 1 128 double
0 0.043518576734 0.07968818185 0.11039677986 0.13322836555 0.14643281034 0.14961902837 0.14405462098 0.13231767657 
0.11755210634 0.1027740467 0.090478533495 0.082473442482 0.079800440514 0.082715455068 0.090946614546 0.10403233809 0.12142403484 
0.14231601178 0.16538461713 0.18864198384 0.2094728376 0.22501435899 0.23290183428 0.23213623154 0.22340004224 0.20894564773 
0.19192511024 0.17575390201 0.16389877604 0.15978509188 0.16670405991 0.1875082033 0.22477270683 0.28112909691 0.35862939898 
0.45462306934 0.55387391875 0.62349651914 0.62762954706 0.55983208702 0.45037413989 0.33638800344 0.23855182438 0.16184734164 
0.10477026203 0.066530359975 0.051333579551 0.058251203341 0.073007896512 0.086546892279 0.095894582993 0.1002243104 0.099796270921 
0.095437433475 0.088366225194 0.079942358137 0.071400914325 0.063633341687 0.057124333513 0.051822711272 0.047335557186 0.043178358243 
0.039102613364 0.035243843216 0.032385268938 0.031657916154 0.034039660572 0.039472252662 0.047126421595 0.056078194552 0.065671459248 
0.075478781408 0.085267766501 0.094901465142 0.10431267521 0.11346697267 0.12233899534 0.13082980785 0.1387535433 0.14588137304 
0.15183395587 0.15618784919 0.15847974901 0.15832256046 0.1554200188 0.14962734899 0.14102774609 0.12984762087 0.11653419906 
0.10151554565 0.085429566016 0.069016638691 0.053480276597 0.041344085105 0.037596989677 0.045374277679 0.061021889216 0.080458010488 
0.10165824872 0.12348356377 0.14501203811 0.16511033289 0.18257921949 0.19619670161 0.20481365024 0.20790115492 0.20545501491 
0.19818051823 0.18725066715 0.17396850298 0.15966588572 0.14535846798 0.13181448715 0.11947360196 0.1085859093 0.099173209531 
0.0910410477 0.083915409248 0.07736671005 0.070874162428 0.063933162468 0.056046369961 0.046901296387 0.036345193874 0.024529261114 
0.011759845366 0 
Torsion 1 128 double
0 0 -0.008410079197 -0.012487842173 -0.017856048081 -0.025234612624 -0.03573145194 -0.050936033273 -0.07295247218 
-0.1036111326 -0.14202353153 -0.17966619213 -0.19627562851 -0.17081284822 -0.10610652591 -0.029899456992 0.03262944692 0.073704914121 
0.0969894039 0.10956171483 0.11738716671 0.12440612944 0.13337373963 0.14659568806 0.16607880995 0.19441311144 0.23481532922 
0.29016189928 0.36063062945 0.43719610375 0.49528904478 0.50415524798 0.45645022788 0.3761434456 0.29166107521 0.2171503078 
0.15587261852 0.10697440244 0.067778088186 0.034670957185 0.0025456574025 -0.03470636954 -0.084227202817 -0.1592533662 -0.29082327468 
-0.5575114165 -1.0956083286 -1.4587108863 -0.90536884726 -0.46867464326 -0.28003527265 -0.20082679364 -0.17017238073 -0.1649464471 
-0.175779336 -0.19790890789 -0.22633980936 -0.25293789544 -0.26681162382 -0.25517864119 -0.21004746815 -0.13163226871 -0.023985529045 
0.11290153895 0.28056407015 0.45965085779 0.5770379256 0.55719128264 0.44709628616 0.33517235073 0.25425143658 0.20208567637 
0.16954310519 0.14938861522 0.13646462614 0.1274534663 0.12087345689 0.11517197271 0.10952546025 0.10390711726 0.098150805145 
0.092559834113 0.087341731188 0.083043769177 0.079946291628 0.078598149008 0.079953080622 0.084781045774 0.095148766418 0.11396511766 
0.14709966665 0.20703622773 0.32042734393 0.54462730236 0.93436285964 1.1622460147 0.82288643796 0.46935736703 0.27837757459 
0.17937248198 0.12469475883 0.092091405721 0.071255251988 0.057119005662 0.046815081467 0.038873310394 0.032130265466 0.025658151406 
0.019143138681 0.011759699729 0.003109228214 -0.0071019367902 -0.019287737518 -0.033239136232 -0.048599603073 -0.063957526418 -0.078063670341 
-0.08870484595 -0.093916794509 -0.093788272482 -0.087973996517 -0.078165473824 -0.065522263878 -0.052245588863 -0.040654761774 -0.025948983785 
0 0 
Abscissas 1 128 double
0 0.50301707892 1.0060341578 1.5090529634 2.0120719066 2.5150889066 3.0181058777 3.5211229203 4.0241399666 
4.5271568541 5.0301737311 5.533189671 6.0362055299 6.5392236822 7.0422420796 7.5452581828 8.048273992 8.5512904919 
9.0543070955 9.5573235263 10.060339927 10.563356882 11.066373947 11.569392545 12.072411478 12.575429264 13.078446777 
13.581463473 14.084479954 14.587499116 15.090519054 15.593534614 16.096548781 16.599565715 17.102583609 17.605599268 
18.10861408 18.611630679 19.114648013 19.61765562 20.120658875 20.623672643 21.126690247 21.629706007 22.132720967 
22.635737575 23.138754945 23.641775586 24.144797864 24.64781904 25.150839623 25.653853076 26.1568624 26.659880971 
27.162905279 27.665931106 28.168957944 28.671972308 29.174977782 29.677984738 30.180992827 30.684013753 31.187045188 
31.690063668 32.193070795 32.696085374 33.199106945 33.702136703 34.205174682 34.708184716 35.211164718 35.714165697 
36.217190818 36.720222547 37.223262415 37.726283091 38.229278469 38.732282242 39.235297872 39.73831567 40.241336748 
40.744362088 41.247394341 41.750420586 42.25343638 42.756452001 43.259467301 43.762483604 44.26550192 44.768518616 
45.271531806 45.774548638 46.277573994 46.780596834 47.283613289 47.786629859 48.289646747 48.792660244 49.295663492 
49.798675351 50.30171579 50.804745895 51.307738261 51.81073955 52.313776838 52.816808165 53.319812871 53.822820715 
54.325844146 54.828866621 55.331883748 55.834900852 56.337917808 56.840936633 57.343969343 57.846997094 58.349981122 
58.852968752 59.355995221 59.859020908 60.36203572 60.86505006 61.368056428 61.871063576 62.37412726 62.877183401 
63.380146018 63.883108634 
ParallelTransportNormals 3 128 double
0.54722024493 0 0.83698865198 0.48162206499 -0.00083314903759 0.87294327228 0.41602388505 -0.0016662980752 0.90889789258 
0.33501005666 -0.021144955464 0.93796972632 0.25276803048 -0.04210914051 0.9664931937 0.17870099739 -0.078143353901 0.97715676159 
0.10475541208 -0.11440144778 0.98755500264 0.063563902425 -0.14158944604 0.98671878945 0.024068989811 -0.16830763109 0.98530065351 
0.0055154579782 -0.18228969551 0.98298586475 -0.011650637274 -0.1954279493 0.98061166974 -0.018456580713 -0.20069437855 0.97945061808 
-0.024366777286 -0.20528020367 0.97839445575 -0.029865453109 -0.20938185283 0.97735345386 -0.035320130555 -0.21343173557 0.97631407287 
-0.050899851475 -0.22432048967 0.97296041924 -0.067777207882 -0.23608572022 0.96931016617 -0.10943677333 -0.26391029642 0.95666743645 
-0.15482006682 -0.29414791965 0.94267351413 -0.23319348348 -0.34817984941 0.90104472232 -0.31727779544 -0.4063307936 0.85463207912 
-0.40092059301 -0.47636255295 0.7692695027 -0.48447665729 -0.54872823868 0.6762554078 -0.52920059493 -0.60749905443 0.58101576041 
-0.56545776703 -0.66330571172 0.48529086454 -0.57540576381 -0.69904767867 0.4194432699 -0.57906366786 -0.72999250691 0.36073884846 
-0.57664336363 -0.74786861949 0.32753141876 -0.57262259975 -0.76230359426 0.30103762981 -0.57033357566 -0.76821478003 0.29072453222 
-0.56854640546 -0.77165579289 0.28510055885 -0.57167167385 -0.76690953143 0.29133019066 -0.57635967898 -0.75955874797 0.3013306715 
-0.5901793119 -0.73853016311 0.32356738991 -0.60717348238 -0.71274659971 0.35005793871 -0.64875052749 -0.6412260881 0.39454533951 
-0.69963715686 -0.55238490184 0.4458481845 -0.77999330702 -0.33965228724 0.45127318384 -0.87248102286 -0.07591792708 0.43781188698 
-0.90364755523 0.14695385438 0.31556245865 -0.90738778995 0.35154958208 0.14465683187 -0.89692535911 0.43270667733 0.049338247617 
-0.8812802672 0.46882007343 -0.018398047877 -0.87577140196 0.48088728832 -0.041850923263 -0.87465402155 0.48253657917 -0.046118161505 
-0.87905671166 0.47484679674 -0.025142703225 -0.886012589 0.46283743134 0.0075082091888 -0.89280917492 0.44181419155 0.059854127025 
-0.89952604887 0.41628026528 0.12205573965 -0.89972936759 0.38226402774 0.19417018208 -0.89641983461 0.34367316078 0.27163075266 
-0.88561942106 0.30220753289 0.34395697865 -0.87048180105 0.25907742358 0.41331042832 -0.85391326063 0.220973584 0.46787196232 
-0.8364568421 0.18598851669 0.51325519537 -0.82360346167 0.16110034208 0.54317003915 -0.81381055247 0.14292539664 0.5628002493 
-0.80913504533 0.13416425387 0.57209519734 -0.808107047 0.132112947 0.57402352476 -0.80938395842 0.1352669891 0.57141998698 
-0.81242215797 0.14239867904 0.56535344144 -0.81531450372 0.14998302344 0.55917655571 -0.8180874474 0.15793792987 0.55290934082 
-0.81966715729 0.16262380163 0.54926767461 -0.82020129311 0.16444517367 0.5479266519 -0.8192265976 0.16083839324 0.55037071372 
-0.81683635847 0.15213907099 0.55636583668 -0.81262330876 0.13770981236 0.56587491562 -0.80657977091 0.11752648324 0.57891275109 
-0.79836948268 0.093183924956 0.59413635493 -0.78783083718 0.064371921723 0.6117087525 -0.77495866833 0.033528600966 0.63013798114 
-0.75940088279 0.00034746760785 0.64955332369 -0.74160767311 -0.033103872914 0.66899669504 -0.72106094266 -0.066888045591 0.68847459134 
-0.69856827848 -0.099720321037 0.70760740153 -0.67351049275 -0.13129780962 0.7262853207 -0.64682451544 -0.16118494442 0.74455963542 
-0.6178390539 -0.18868480374 0.76226394224 -0.5876384563 -0.21395375148 0.77958608562 -0.5555990503 -0.23584676539 0.79632991899 
-0.52314784196 -0.25503710347 0.81258996855 -0.49002862945 -0.26984330252 0.82806524938 -0.45763650157 -0.28187427979 0.8428460231 
-0.42650920899 -0.28907748556 0.85641863336 -0.39747450536 -0.29407237612 0.86896611512 -0.37234758996 -0.29494336636 0.87959922902 
-0.3501153871 -0.29476364437 0.88901767228 -0.333694398 -0.29247458914 0.89599763138 -0.32025496137 -0.29028315814 0.90174221168 
-0.3132666161 -0.28830295362 0.90481384172 -0.30894015314 -0.28713698458 0.90670049485 -0.31084280555 -0.28787642164 0.90581416371 
-0.31525716821 -0.28976974817 0.9036389697 -0.32604929146 -0.29459304279 0.89819108177 -0.33940489378 -0.30058168898 0.89115677593 
-0.35985000581 -0.30979320964 0.87973510241 -0.38312998753 -0.31982029636 0.86616085122 -0.41498120152 -0.33231324816 0.84607827852 
-0.44979443786 -0.34463951416 0.82316203953 -0.49443799412 -0.35641258558 0.79084146703 -0.54124959562 -0.36629907662 0.75557259009 
-0.59597957312 -0.3692951889 0.70953558769 -0.65082385362 -0.36897212157 0.66185458044 -0.70612931746 -0.35525701516 0.60754043504 
-0.75937141133 -0.33872248261 0.55392475706 -0.80340096275 -0.30959976497 0.50342759923 -0.84474248599 -0.27973450996 0.45511941537 
-0.8727279578 -0.2461797968 0.41768762377 -0.89889961626 -0.21317540488 0.38214246426 -0.91493010559 -0.18324790105 0.35714560904 
-0.93006744308 -0.15393121968 0.33319142508 -0.93949788552 -0.12851745774 0.31589950752 -0.9485337712 -0.10336000547 0.29904626501 
-0.95463776275 -0.080107153189 0.28545275324 -0.960549786 -0.056800853431 0.27198176865 -0.96476888587 -0.03302321294 0.25959132247 
-0.96884939203 -0.0090910987226 0.24721455011 -0.97143616426 0.016505901038 0.23498515133 -0.97389678272 0.042502229552 0.22262668544 
-0.97460247427 0.074053625649 0.20847276532 -0.97516915198 0.10554940025 0.19437370377 -0.97338835119 0.13610591389 0.18120101975 
-0.97153528945 0.16687664169 0.16793953343 -0.96445337817 0.2131480473 0.14825225404 -0.95789998713 0.2559662362 0.13003422854 
-0.95789998713 0.2559662362 0.13003422854 -0.95789998713 0.2559662362 0.13003422854 
FrenetTangent 3 128 double
-0.91801023356 -0.18897923121 0.34863169856 -0.91801023356 -0.18897923121 0.34863169856 -0.92014385546 -0.21109109185 0.32981181937 
-0.92196594319 -0.24463001159 0.30022484412 -0.92173371951 -0.28654339444 0.26134236821 -0.91797766397 -0.33305691061 0.21538361763 
-0.91002828652 -0.38022772387 0.16515264375 -0.89822867781 -0.42459383493 0.11360157436 -0.88374430375 -0.46367146593 0.063283309605 
-0.86810395449 -0.49612701526 0.015921963802 -0.85271074806 -0.52164500104 -0.027764600478 -0.8384998113 -0.54064120949 -0.068008448292 
-0.8257898198 -0.5539653478 -0.10579965475 -0.81427663591 -0.56267672768 -0.14264802954 -0.80310228632 -0.56789296366 -0.18034494596 
-0.79094444881 -0.5706872144 -0.22073282995 -0.77610027707 -0.57200607852 -0.26547581072 -0.7565655126 -0.57259494294 -0.31582219121 
-0.73013472265 -0.57293735627 -0.37235208146 -0.69458115682 -0.57321431277 -0.43472102345 -0.64795875984 -0.57332157572 -0.50144971469 
-0.5890374802 -0.57296821959 -0.56986162027 -0.51779539892 -0.571856959 -0.63629202675 -0.43576096608 -0.56991915204 -0.69663802693 
-0.34595968793 -0.56752002715 -0.74714985987 -0.25240449418 -0.56552300903 -0.78515966374 -0.15929966068 -0.56519682067 -0.80942953493 
-0.070282087907 -0.56802258083 -0.82000657058 0.012001802119 -0.57549099247 -0.81772004643 0.085950965614 -0.58897067731 -0.80357076402 
0.1508003966 -0.60964849454 -0.77819531834 0.20628693702 -0.63849776017 -0.74146227812 0.25228749882 -0.6762083787 -0.69216562073 
0.28844888349 -0.72298051881 -0.62777098614 0.31379321775 -0.77801645892 -0.54426483089 0.32633213514 -0.83850820513 -0.43636146428 
0.32291034625 -0.89803240541 -0.29877534556 0.29988676538 -0.94512085177 -0.12967075038 0.25551772568 -0.96469814624 0.063782274217 
0.19350482106 -0.94536939444 0.26235966206 0.12384961827 -0.88866559516 0.44151413571 0.058348770523 -0.80919229331 0.58463942172 
0.0051465824113 -0.72476953021 0.68897216255 -0.032609026171 -0.64810704484 0.76085078027 -0.054994560463 -0.58538187444 0.80889038775 
-0.06338515067 -0.53834142657 0.84033971173 -0.059446844413 -0.50647515256 0.86020287871 -0.044841313501 -0.48829330353 0.87152676742 
-0.021251400119 -0.48191181845 0.87596197248 0.0094931189072 -0.48528986825 0.87430179255 0.045325882586 -0.49633542734 0.86694677341 
0.083968020693 -0.51300376214 0.85426957779 0.12305081439 -0.53341077536 0.83685807746 0.16033983299 -0.55594532881 0.81560770553 
0.19395987176 -0.57934780864 0.7916663974 0.22254796758 -0.6027220341 0.76628881744 0.24532595723 -0.62549601438 0.74065505514 
0.26209020788 -0.64733519407 0.71572751062 0.27314180967 -0.66804092587 0.69218124301 0.27918464314 -0.68748640958 0.67038673292 
0.28122255527 -0.70557201738 0.65044754031 0.280464382 -0.72220041347 0.63227074359 0.27823287324 -0.73727413614 0.61564057406 
0.27587349994 -0.75070152745 0.60028412333 0.27467526387 -0.76239090014 0.58592970124 0.27579649086 -0.77224886485 0.572335554 
0.28021103734 -0.78016222265 0.55931089825 0.28867398426 -0.78597449253 0.5467279286 0.30169848477 -0.78947878489 0.53451031093 
0.31956119874 -0.79040362639 0.52263060345 0.3423160792 -0.78841015091 0.51110579714 0.36981259747 -0.78310276627 0.49998870008 
0.40172587773 -0.77404385181 0.48935920818 0.43758754591 -0.76077231386 0.47931474641 0.47681228535 -0.74282240644 0.46996267621 
0.51871575081 -0.71974870186 0.46140630254 0.56253098004 -0.69115227107 0.45372616708 0.60742060268 -0.65669762186 0.44697700711 
0.65247804578 -0.61614874987 0.44117243546 0.69672562416 -0.56941901276 0.43627444636 0.73913107219 -0.51661324133 0.4321990479 
0.77863475029 -0.45808370343 0.42882076244 0.81419367308 -0.39448553214 0.42599275541 0.84485954496 -0.32680502238 0.42356915214 
0.86986955109 -0.256350038 0.42143993891 0.88874068247 -0.18469586492 0.41955623794 0.90133737687 -0.11359789845 0.41795508195 
0.90790020831 -0.044860463049 0.41677901892 0.90902767678 0.019792306922 0.4162654771 0.90560059063 0.078834957938 0.41674047038 
0.89867933158 0.1309969972 0.41858720205 0.88938813721 0.17528286597 0.42221399585 0.87879782017 0.21096271706 0.42802934861 
0.8678365587 0.23750659651 0.4364061457 0.85722342269 0.25450931367 0.44765278156 0.84741980143 0.26164948821 0.46197318695 
0.8385981806 0.25863297969 0.47943933225 0.83062763001 0.24516330258 0.4999526931 0.82307249696 0.22097037355 0.52318616072 
0.81519907559 0.18586098885 0.5485491409 0.80600793372 0.13982628471 0.57515199807 0.79430716915 0.083164832416 0.60179708514 
0.77883143777 0.016652983884 0.62701217665 0.75841226912 -0.058311750188 0.64916143588 0.73217961845 -0.13967560766 0.66663613084 
0.69976273661 -0.22478611805 0.67808798366 0.66141500272 -0.31064356196 0.68266446486 0.61799934595 -0.39427206218 0.68016641301 
0.57083816273 -0.47308455492 0.67106988896 0.52146744333 -0.54518309167 0.65638944393 0.47137587568 -0.60945493269 0.63747115138 
0.42180315796 -0.66552867886 0.61575455626 0.37363430182 -0.71361307462 0.59258230503 0.32738748362 -0.75429031362 0.56909011443 
0.28326742943 -0.78833414937 0.54615824846 0.24124779221 -0.81657059033 0.52441584049 0.20116942027 -0.83979099554 0.50426376843 
0.16284826091 -0.85868981975 0.48593439617 0.12616621709 -0.87385743797 0.46952663798 0.091143083142 -0.88579352046 0.45504151185 
0.057986999501 -0.89492402459 0.4424347388 0.027117958647 -0.90164184871 0.43163247442 -0.00084925208318 -0.90633141924 0.42256672524 
-0.025153604245 -0.90939010175 0.41518301872 -0.044978035655 -0.91121643719 0.4094649935 -0.059557567623 -0.91218657596 0.40542390997 
-0.068274527437 -0.91262417659 0.40305793777 -0.068274527437 -0.91262417659 0.40305793777 
FrenetNormal 3 128 double
-0.085962604276 -0.76340969801 -0.64016877747 -0.085962604276 -0.76340969801 -0.64016877747 -0.060275766134 -0.75586684185 -0.65194489752 
-0.020834875652 -0.74277746636 -0.66921412375 0.029197876182 -0.72322900514 -0.6899907899 0.085611307345 -0.69661252497 -0.71232134189 
0.14352109561 -0.66273618035 -0.7349710541 0.19801746301 -0.62166823145 -0.75783751184 0.24467256095 -0.57308470564 -0.78211844248 
0.27977837642 -0.51553730731 -0.80990452824 0.30045674001 -0.44627776986 -0.84294833739 0.30533452316 -0.36280393509 -0.88042270169 
0.29673235379 -0.26723833851 -0.91680618489 0.28369847628 -0.17136645524 -0.94347692742 0.27991790234 -0.092395869621 -0.95556735567 
0.29587316415 -0.040938278892 -0.95434958378 0.33344524665 -0.014922594376 -0.94265135849 0.38872963599 -0.0054509074175 -0.92133574647 
0.45635953919 -0.0032970905943 -0.8897893572 0.53172160947 -0.0020084369704 -0.84691681776 0.61115532737 0.0015673254027 -0.79150913407 
0.69125197512 0.0080130650266 -0.72256937222 0.76845247469 0.015982086889 -0.63970725104 0.83917567431 0.022577346915 -0.5433916185 
0.90019286055 0.023723889399 -0.43484478941 0.94878872518 0.014667464905 -0.31557062671 0.98243937601 -0.010081121101 -0.1863095367 
0.99733328756 -0.056219093731 -0.046537372316 0.98614918271 -0.12847936281 0.10489443636 0.93666651985 -0.22708285328 0.26662559582 
0.8360516704 -0.34141464315 0.42948066996 0.68451470485 -0.44730777822 0.57563475433 0.50466970716 -0.51836792459 0.69036452793 
0.3273664166 -0.54166213145 0.77423082129 0.17061269334 -0.51768523153 0.83838732691 0.036904556761 -0.4499797142 0.89227591613 
-0.078223395879 -0.33993082284 0.93719162182 -0.17855267088 -0.18913271128 0.96558156634 -0.26329325044 -0.005955743251 0.96469746211 
-0.32704794658 0.1899634849 0.9257178377 -0.36475577304 0.37301860396 0.85311801477 -0.37494259274 0.52499856075 0.76406450209 
-0.35828104217 0.64190471649 0.67793290949 -0.31165735491 0.72989315597 0.60837954764 -0.22017586014 0.79728479073 0.56201383709 
-0.041557365939 0.84272634718 0.53673577215 0.31534035061 0.80807220995 0.49757388073 0.81059389878 0.49211619674 0.31742586563 
0.99831307372 0.037122132697 0.044642514486 0.96651065135 -0.21978261786 -0.132486836 0.90695429142 -0.34336467072 -0.24399716428 
0.85107501849 -0.40897894232 -0.32925299943 0.79699467381 -0.44934162197 -0.40359831105 0.73979447468 -0.47933559761 -0.47216683503 
0.67467524281 -0.50706751327 -0.53637286818 0.59735556953 -0.53687390373 -0.59576231421 0.50366255845 -0.57056263998 -0.64867734743 
0.39195119571 -0.60632454957 -0.69191386803 0.26500316723 -0.63944806316 -0.72171981813 0.13296579533 -0.66374292861 -0.73604716017 
0.012521316531 -0.67504629924 -0.73766910639 -0.077580001268 -0.67360888271 -0.73500504524 -0.12192357329 -0.66287392699 -0.73873730053 
-0.10683636274 -0.64459780706 -0.75702024988 -0.017343269069 -0.61319687468 -0.78973970642 0.15753937622 -0.55106143654 -0.81945874704 
0.39680900573 -0.43640446387 -0.80752322374 0.62611509783 -0.27703551001 -0.72885609722 0.7821165274 -0.11566949049 -0.61230246328 
0.86597283606 0.019700460112 -0.49970285079 0.90408322285 0.12826910882 -0.40765250138 0.91631144496 0.21840512572 -0.3356673009 
0.9130706715 0.29763734171 -0.27877223977 0.89917552734 0.3706564656 -0.23258795229 0.87674794159 0.44019695044 -0.19375162387 
0.84668669444 0.50730832416 -0.1604989274 0.8093947128 0.57230499246 -0.13170874877 0.7650556119 0.63507611041 -0.10662197093 
0.71394326414 0.69499379216 -0.085256345479 0.65638792514 0.75139462503 -0.067535244161 0.59285543079 0.80353633945 -0.053402147633 
0.52399894102 0.85064476226 -0.04276211228 0.45060402938 0.89203053652 -0.03517855342 0.37372532389 0.92704845339 -0.030175277088 
0.29445501161 0.95529257244 -0.026689832846 0.2141826914 0.97650296655 -0.023827106863 0.13410908352 0.99076620365 -0.019926952246 
0.055393532111 0.9983772577 -0.0132063588 -0.021186826926 0.99977472803 -0.001269469221 -0.095609944027 0.99522789367 0.01949816066 
-0.16867754955 0.98418333349 0.054139175758 -0.24288934363 0.96361340181 0.11159739513 -0.32289061703 0.92333019215 0.20785332736 
-0.41399499545 0.83131550015 0.37084050878 -0.50360248306 0.5957980722 0.62562704243 -0.50264082419 0.1151694338 0.85678947436 
-0.37395252587 -0.3666691355 0.85188805219 -0.25642293432 -0.62857617183 0.73426104007 -0.19327125765 -0.7572454731 0.62387940697 
-0.17020494978 -0.82841523391 0.53362765604 -0.17363678732 -0.87309090176 0.45559032404 -0.195461495 -0.90293057719 0.38276778435 
-0.23056085685 -0.92206166839 0.31087613446 -0.27515662811 -0.93152856954 0.23778846511 -0.32590916242 -0.93127323518 0.16282929493 
-0.37981613763 -0.92099511716 0.086646960522 -0.43397425598 -0.90086371326 0.01053163208 -0.48613683084 -0.87157113362 -0.063519609111 
-0.53464135984 -0.83446937134 -0.13348964248 -0.57853528333 -0.79134570521 -0.19765854597 -0.61794777819 -0.74395149145 -0.2543161847 
-0.65331549293 -0.6939983888 -0.30256421309 -0.68588580357 -0.64263976863 -0.34143050864 -0.71678170007 -0.59068488495 -0.37056087372 
-0.74726978967 -0.53837982386 -0.38953180449 -0.77796909019 -0.48576349909 -0.39849456416 -0.80891740124 -0.4327440311 -0.39797643337 
-0.83958081223 -0.37929875424 -0.38889139199 -0.86848373006 -0.32602915623 -0.37341799624 -0.89430560189 -0.273818136 -0.35389421982 
-0.91612165717 -0.22380072472 -0.33261741517 -0.93314470445 -0.17767689376 -0.31252501017 -0.94592193384 -0.1363498075 -0.29434745637 
-0.95441973123 -0.10171041869 -0.28060286415 -0.96036658052 -0.073426791672 -0.26889503022 -0.96370719096 -0.053338066823 -0.26157886136 
-0.96473338573 -0.042552403685 -0.25976679424 -0.96473338573 -0.042552403685 -0.25976679424 
FrenetBinormal 3 128 double
0.38712742313 -0.61765077767 0.68457276831 0.38712742313 -0.61765077767 0.68457276831 0.38691357856 -0.61976275165 0.68278255279 
0.3867101079 -0.62324777809 0.67971869148 0.38672268403 -0.62835713509 0.67499101952 0.38728247121 -0.63545580834 0.6679881759 
0.3889090033 -0.64514156063 0.65767937013 0.39239562523 -0.65821629071 0.64247722757 0.39891270162 -0.67570902897 0.61990802919 
0.41002388259 -0.69862670254 0.58634558599 0.42732906235 -0.7271331687 0.53727760743 0.45131906165 -0.75899959637 0.46928745701 
0.47960513313 -0.7884833948 0.38506214097 0.50642742299 -0.80872024715 0.29917023096 0.52599684948 -0.81790010704 0.23316674128 
0.53559868338 -0.82014642634 0.2012309363 0.53524071914 -0.82011362768 0.20231413756 0.52583067165 -0.81982029673 0.2267085923 
0.5085658834 -0.81959252985 0.26387274822 0.48459173189 -0.81940302527 0.30618545943 0.45457519882 -0.81932894146 0.34937297307 
0.41857562495 -0.81953841285 0.39134541784 0.37599031769 -0.82019765383 0.43116944426 0.32541752885 -0.82139054264 0.46842396222 