# vtk DataFile Version 4.2
vtk output
ASCII
DATASET POLYDATA
POINTS 128 float
0 0 0 -0.0827496 0.194598 0.26888 -0.254101 0.560085 0.794183 
-0.421663 0.835098 1.23859 -0.589259 1.03535 1.61981 -0.780153 1.23228 2.02704 
-0.992201 1.42311 2.45488 -1.2178 1.5889 2.87742 -1.45643 1.73046 3.29423 
-1.70925 1.85313 3.71085 -1.97578 1.95679 4.12604 -2.25516 2.03989 4.53684 
-2.54716 2.10218 4.94199 -2.85175 2.14372 5.34065 -3.16884 2.16389 5.73126 
-3.49837 2.16181 6.11198 -3.84026 2.1364 6.48074 -4.19441 2.08646 6.83526 
-4.56041 2.01049 7.1727 -4.93769 1.90689 7.48994 -5.325 1.77414 7.78331 
-5.72072 1.61084 8.04894 -6.1223 1.41649 8.28302 -6.52672 1.19113 8.48191 
-6.93047 0.93618 8.64284 -7.32989 0.653849 8.76372 -7.72181 0.347568 8.84432 
-8.10344 0.0213298 8.88539 -8.47324 -0.320734 8.88897 -8.83033 -0.674518 8.85772 
-9.17458 -1.03659 8.79429 -9.50623 -1.4039 8.70132 -9.82582 -1.77393 8.58101 
-10.134 -2.14447 8.43526 -10.4311 -2.51367 8.26533 -10.7175 -2.8799 8.07211 
-10.9931 -3.24166 7.85606 -11.2575 -3.59749 7.6174 -11.51 -3.94602 7.35613 
-11.7495 -4.2859 7.07215 -11.9745 -4.61596 6.7656 -12.1832 -4.93514 6.43681 
-12.3738 -5.24274 6.08664 -12.5441 -5.53836 5.71629 -12.6923 -5.82222 5.32767 
-12.8168 -6.09501 4.92317 -12.9165 -6.35822 4.50565 -12.9908 -6.61389 4.07832 
-13.0396 -6.86449 3.64438 -13.0637 -7.11274 3.20705 -13.0638 -7.36125 2.76921 
-13.0413 -7.61247 2.33352 -12.9976 -7.86863 1.90235 -12.9344 -8.13176 1.47784 
-12.8534 -8.40358 1.06194 -12.7563 -8.68556 0.656358 -12.6448 -8.97903 0.262808 
-12.5206 -9.28523 -0.117035 -12.3854 -9.60547 -0.481227 -12.241 -9.94114 -0.827556 
-12.089 -10.294 -1.15301 -11.9315 -10.6661 -1.45378 -11.7711 -11.0597 -1.72414 
-11.6111 -11.4771 -1.95635 -11.457 -11.9213 -2.13768 -11.3165 -12.3956 -2.25031 
-11.2042 -12.8898 -2.26942 -11.1416 -13.3799 -2.16441 -11.1405 -13.8335 -1.93234 
-11.2011 -14.2112 -1.6002 -11.3148 -14.4976 -1.19863 -11.4634 -14.704 -0.760355 
-11.6333 -14.8427 -0.306469 -11.8164 -14.925 0.155541 -12.006 -14.9607 0.620871 
-12.1969 -14.9573 1.08707 -12.3847 -14.9211 1.55283 -12.566 -14.8573 2.01816 
-12.7377 -14.7705 2.48339 -12.8968 -14.6649 2.94923 -13.0404 -14.5448 3.41653 
-13.1659 -14.4145 3.88632 -13.2704 -14.2788 4.35974 -13.3509 -14.1437 4.83803 
-13.4041 -14.016 5.32221 -13.4262 -13.9041 5.81285 -13.4136 -13.8183 6.30928 
-13.3625 -13.7723 6.80886 -13.2715 -13.7794 7.30545 -13.1425 -13.8527 7.78753 
-12.9811 -13.9991 8.24329 -12.7979 -14.2148 8.66135 -12.6032 -14.4922 9.03491 
-12.405 -14.8181 9.36519 -12.2094 -15.1806 9.6553 -12.0194 -15.5713 9.91039 
-11.8367 -15.9829 10.1356 -11.6614 -16.4106 10.3355 -11.4936 -16.8502 10.5144 
-11.3325 -17.2991 10.6755 -11.1777 -17.7551 10.8219 -11.0281 -18.2166 10.9562 
-10.8827 -18.6822 11.0805 -10.7406 -19.1508 11.1968 -10.6005 -19.6215 11.3068 
-10.4613 -20.0936 11.4122 -10.3215 -20.5662 11.5143 -10.1795 -21.0386 11.6144 
-10.0338 -21.5099 11.7138 -9.8824 -21.9795 11.8134 -9.72349 -22.4464 11.9141 
-9.55513 -22.9095 12.0166 -9.37551 -23.3679 12.1213 -9.183 -23.8205 12.2283 
-8.97626 -24.2663 12.3377 -8.75472 -24.7043 12.4491 -8.51805 -25.1338 12.5619 
-8.26631 -25.555 12.6754 -8.00025 -25.9679 12.7889 -7.72263 -26.3712 12.9011 
-7.4349 -26.7655 13.0112 -7.13288 -27.1579 13.1201 -6.81745 -27.5501 13.2273 
-6.51104 -27.9197 13.3271 -6.21838 -28.2638 13.4183 -5.86287 -28.6697 13.52 
-5.42885 -29.1568 13.6362 -5.20413 -29.4076 13.695 
LINES 1 129
128 0 1 2 3 4 5 6 7 8 9 10 11 12 13 14 15 16 17 18 19 20 21 22 23 24 25 26 27 28 29 30 31 32 33 34 35 36 37 38 39 40 41 42 43 44 45 46 47 48 49 50 51 52 53 54 55 56 57 58 59 60 61 62 63 64 65 66 67 68 69 70 71 72 73 74 75 76 77 78 79 80 81 82 83 84 85 86 87 88 89 90 91 92 93 94 95 96 97 98 99 100 101 102 103 104 105 106 107 108 109 110 111 112 113 114 115 116 117 118 119 120 121 122 123 124 125 126 127 

CELL_DATA 1
FIELD FieldData 2
Length 1 1 double
60.054737256 
Tortuosity 1 1 double
0.82787891982 
POINT_DATA 128
SCALARS MaximumInscribedSphereRadius float
LOOKUP_TABLE default
1.116 0.986877 0.857755 0.751929 0.646473 0.79204 0.945892 1.08832 1.23018 
1.23957 1.23997 1.2378 1.23542 1.16659 1.09076 1.01787 0.945347 1.00451 
1.08285 1.15671 1.22982 1.25027 1.26077 1.26855 1.27574 1.27715 1.27719 
1.27349 1.26882 1.26027 1.25062 1.21655 1.17483 1.11527 1.04964 1.01312 
0.987397 0.979883 0.979666 1.05634 1.16629 1.31178 1.47382 1.50449 1.46934 
1.41061 1.33921 1.27949 1.22649 1.18245 1.14393 1.15221 1.19135 1.22683 
1.25972 1.26915 1.26096 1.25086 1.23924 1.19379 1.11942 1.05028 0.98589 
1.04373 1.22025 1.36804 1.48611 1.55256 1.56208 1.6149 1.71843 1.77462 
1.77172 1.73924 1.66742 1.63591 1.66171 1.70356 1.76979 1.82007 1.8445 
1.85983 1.85935 1.84103 1.78951 1.72582 1.63783 1.55095 1.46646 1.40394 
1.39223 1.44036 1.63773 1.80185 1.87609 1.92535 1.90137 1.88037 1.86891 
1.86006 1.86033 1.8645 1.88362 1.91223 1.98108 2.04943 2.11537 2.17176 
2.17763 2.18373 2.19126 2.20693 2.27845 2.34891 2.41097 2.45936 2.378 
2.29451 2.18641 2.07032 1.83654 1.60761 1.47577 1.35742 1.64474 1.93186 
2.20593 2.48 
TEXTURE_COORDINATES TCoords 2 float
0 0 0.00787402 0 0.015748 0 0.023622 0 0.0314961 
0 0.0393701 0 0.0472441 0 0.0551181 0 0.0629921 0 
0.0708661 0 0.0787402 0 0.0866142 0 0.0944882 0 0.102362 
0 0.110236 0 0.11811 0 0.125984 0 0.133858 0 
0.141732 0 0.149606 0 0.15748 0 0.165354 0 0.173228 
0 0.181102 0 0.188976 0 0.19685 0 0.204724 0 
0.212598 0 0.220472 0 0.228346 0 0.23622 0 0.244094 
0 0.251969 0 0.259843 0 0.267717 0 0.275591 0 
0.283465 0 0.291339 0 0.299213 0 0.307087 0 0.314961 
0 0.322835 0 0.330709 0 0.338583 0 0.346457 0 
0.354331 0 0.362205 0 0.370079 0 0.377953 0 0.385827 
0 0.393701 0 0.401575 0 0.409449 0 0.417323 0 
0.425197 0 0.433071 0 0.440945 0 0.448819 0 0.456693 
0 0.464567 0 0.472441 0 0.480315 0 0.488189 0 
0.496063 0 0.503937 0 0.511811 0 0.519685 0 0.527559 
0 0.535433 0 0.543307 0 0.551181 0 0.559055 0 
0.566929 0 0.574803 0 0.582677 0 0.590551 0 0.598425 
0 0.606299 0 0.614173 0 0.622047 0 0.629921 0 
0.637795 0 0.645669 0 0.653543 0 0.661417 0 0.669291 
0 0.677165 0 0.685039 0 0.692913 0 0.700787 0 
0.708661 0 0.716535 0 0.724409 0 0.732283 0 0.740157 
0 0.748031 0 0.755906 0 0.76378 0 0.771654 0 
0.779528 0 0.787402 0 0.795276 0 0.80315 0 0.811024 
0 0.818898 0 0.826772 0 0.834646 0 0.84252 0 
0.850394 0 0.858268 0 0.866142 0 0.874016 0 0.88189 
0 0.889764 0 0.897638 0 0.905512 0 0.913386 0 
0.92126 0 0.929134 0 0.937008 0 0.944882 0 0.952756 
0 0.96063 0 0.968504 0 0.976378 0 0.984252 0 
0.992126 0 1 0 
FIELD FieldData 7
Curvature 1 128 double
0 0.01964714889 0.036376730011 0.051531812947 0.064677358639 0.075621145907 0.084409925111 0.091309110344 0.096730090476 
0.10116704991 0.10511489063 0.10901777628 0.11323845025 0.11802494427 0.12352129118 0.12975856812 0.13665566581 0.1440217281 
0.1515655789 0.15889374828 0.16555088771 0.17103757116 0.17489929451 0.17679928723 0.17651691029 0.17409724638 0.16976273823 
0.16392396138 0.15708763048 0.14981277443 0.14261431439 0.13592203464 0.13008351885 0.12526396533 0.12154885837 0.11889375655 
0.11713034833 0.11605587246 0.11537094951 0.11481929326 0.11409539772 0.11295931672 0.11124034045 0.10883052587 0.10573396564 
0.10205001074 0.097956323598 0.093700084714 0.089585473616 0.085923978378 0.083081470832 0.081344204109 0.081083606353 0.082620771937 
0.086319323952 0.092553143719 0.10179007806 0.11457930482 0.13164602403 0.15394800544 0.18271677361 0.21947540377 0.26578109588 
0.32250321427 0.38824596494 0.45702315181 0.51650908632 0.55043616039 0.54708629184 0.50759790244 0.44510263748 0.37534320396 
0.30946099813 0.25234258496 0.20484795513 0.1659580102 0.13429968169 0.10894071363 0.089773369039 0.077945426565 0.075163203683 
0.082014182427 0.096821891627 0.1172052426 0.14119043765 0.16708350403 0.19302711353 0.21676988557 0.23573444378 0.24748483673 
0.25048503418 0.24455972989 0.23102865301 0.21211870542 0.19025399769 0.16754859301 0.14542468691 0.12474195202 0.10588365063 
0.088910378254 0.073764132659 0.060274501954 0.048343262241 0.037907639871 0.029166998479 0.022710919408 0.019654442056 0.020601398414 
0.024466022604 0.029586650599 0.034906263435 0.039901520401 0.044199340642 0.047624514883 0.049983605009 0.051199934443 0.051276623929 
0.050212566311 0.048070171452 0.044995528788 0.041074783478 0.036445528623 0.031201792819 0.025457737616 0.019286067666 0.012785869734 
0.0060675569709 0 
Torsion 1 128 double
0 0 -0.0052536235884 -0.0074609437092 -0.0099281586444 -0.012654204958 -0.015565442729 -0.018586443028 -0.021539735014 
-0.024123455137 -0.026108353615 -0.027312071574 -0.027563389526 -0.026897390143 -0.025470830831 -0.023547934315 -0.021444717427 -0.019500347377 
-0.017904317283 -0.016904192561 -0.016577791823 -0.017004534247 -0.018404996965 -0.020565062931 -0.02355079048 -0.027432299711 -0.03203088319 
-0.037177095423 -0.042461977705 -0.047630356971 -0.05179834249 -0.054025700487 -0.053649579448 -0.049746388201 -0.04191559736 -0.030396781471 
-0.015574661282 0.0015654106185 0.020159852139 0.039689822877 0.059509073627 0.079648143003 0.10012448674 0.12124075758 0.14348830977 
0.16713107356 0.19214057328 0.21838321948 0.24546343602 0.27230412462 0.296742812 0.3168857268 0.329909801 0.33340779111 
0.3261708282 0.30900130481 0.28370802684 0.25316814642 0.22097033618 0.18979509043 0.16089609439 0.13522708041 0.11262152449 
0.092510220326 0.074413283217 0.0578279165 0.042090552556 0.026764274182 0.011195309237 -0.0058126654983 -0.025284320515 -0.047983561955 
-0.075114924979 -0.10853255536 -0.15129863808 -0.20864331935 -0.28900652098 -0.4043634513 -0.55981946736 -0.71805040801 -0.77031929412 
-0.66620116958 -0.50701448762 -0.37584101837 -0.28527043703 -0.22495838481 -0.18428932272 -0.15589328214 -0.13550599362 -0.12040889908 
-0.10871187335 -0.099566425083 -0.091814159608 -0.08471910787 -0.077996901655 -0.070652039489 -0.062243798616 -0.052036185562 -0.038596021367 
-0.020156438246 0.0060493578477 0.045241842738 0.10762408791 0.21197528331 0.38709685686 0.64727269288 0.83293259362 0.69952268708 
0.43710468581 0.24951588004 0.13905969858 0.074005052538 0.033534791153 0.0068259130307 -0.01185946841 -0.025757233342 -0.03618556902 
-0.044463223938 -0.05052169649 -0.054320795887 -0.055558895713 -0.054334745516 -0.05075300849 -0.044041802048 -0.035654666129 -0.026347675449 
0 0 
Abscissas 1 128 double
0 0.50330318436 1.0066063687 1.5099102092 2.0132140602 2.5165141772 3.0198141711 3.5231194538 4.026425001 
4.5297280388 5.0330309062 5.5363342652 6.0396376666 6.5429420705 7.04624658 7.5495487653 8.0528506596 8.5561532059 
9.0594558471 9.5627592805 10.066062846 10.569365475 11.072667927 11.575972942 12.079278499 12.582582819 13.085886846 
13.589188141 14.092488724 14.595790631 15.099092918 15.602397056 16.105701773 16.60899523 17.112284847 17.615602689 
18.118930984 18.622229703 19.125516572 19.628821948 20.132135331 20.635434606 21.138727305 21.642033066 22.145345371 
22.648653227 23.151958692 23.655259466 24.158557536 24.66185972 25.165164441 25.668467453 26.171769339 26.675071116 
27.178372818 27.681679937 28.18499113 28.688297844 29.191600969 29.694896571 30.198185744 30.701492471 31.204815198 
31.708127782 32.211430519 32.714724705 33.218010048 33.721301912 34.224600966 34.72790501 35.231214898 35.734524788 
36.237834679 36.741136184 37.244426529 37.747723542 38.251030032 38.754333694 39.257633063 39.760936574 40.264246807 
40.767552356 41.270849771 41.774151307 42.277460511 42.780768032 43.284072192 43.787375294 44.29067612 44.79398201 
45.297299604 45.800609099 46.303898385 46.807198339 47.310527114 47.813845857 48.317135198 48.820421389 49.323697524 
49.826983346 50.330303029 50.833624343 51.336951915 51.840270975 52.343553937 52.846842628 53.350158357 53.853469011 
54.356752823 54.860044176 55.363380711 55.866707412 56.369966679 56.87323128 57.37653852 57.879845621 58.383151406 
58.886456696 59.389756243 59.893058151 60.396394843 60.899729662 61.40302704 61.906324674 62.409630025 62.912935066 
63.416220167 63.919505268 
ParallelTransportNormals 3 128 double
0 -0.8173691176 0.57611433379 0.012808068055 -0.83979184111 0.54097535141 0.025616136111 -0.86221456461 0.50583636903 
0.039817576661 -0.87882682576 0.47387873423 0.054041134894 -0.8953468546 0.44197159851 0.069280246385 -0.90762805679 0.41249108244 
0.08455287435 -0.91976936427 0.38309065251 0.10077022564 -0.92863878611 0.35547597123 0.11703481222 -0.93734461668 0.32795057574 
0.13446428327 -0.9433689739 0.30154472468 0.15197287595 -0.94921119927 0.27521491566 0.17094356198 -0.95259645831 0.24960415737 
0.19004045928 -0.95576962634 0.2240554692 0.21138774831 -0.95643628359 0.19855150497 0.23297227513 -0.95683870282 0.17305225555 
0.25795747948 -0.95420032756 0.14704747869 0.28336837996 -0.95118130627 0.12097942 0.31354430873 -0.94396261353 0.094340787846 
0.34441439157 -0.9361321261 0.067619036382 0.38078374515 -0.92250549738 0.041517900674 0.41807108094 -0.90791133045 0.015520363106 
0.45941931495 -0.88665553286 -0.0070156981188 0.50153497662 -0.86414082178 -0.028897610307 0.54376677335 -0.8364130185 -0.04433169021 
0.58602317723 -0.80758064522 -0.058399578632 0.62355816886 -0.77763274631 -0.065197145966 0.65998047734 -0.74742195432 -0.070281335326 
0.68915524023 -0.7202417052 -0.070120758698 0.71644267512 -0.69385063751 -0.068594396426 0.73719314169 -0.67201603101 -0.06457655108 
0.75607279123 -0.65148543956 -0.059845667407 0.77013495268 -0.63524340585 -0.05445580455 0.78268905594 -0.62034385489 -0.048859655983 
0.79229119039 -0.60843247454 -0.04327501707 0.80088666221 -0.59754010214 -0.037694303111 0.80803966214 -0.58813683515 -0.031947780238 
0.8146584838 -0.57928501581 -0.026139854771 0.82091919138 -0.57058183967 -0.019420395176 0.82703642627 -0.56193821506 -0.012335743989 
0.83357416969 -0.55218559855 -0.0029741935374 0.84029385022 -0.54195316587 0.0073724796341 0.84754400764 -0.52988063839 0.02150533943 
0.85504134424 -0.51695070669 0.037402397695 0.86246076859 -0.50201249426 0.058165978256 0.8698411569 -0.48606808206 0.081367810394 
0.87605317325 -0.46842388219 0.10931679428 0.88163704316 -0.4498658333 0.13981796751 0.88510232544 -0.4301291762 0.17351186633 
0.88734704572 -0.40971349861 0.20904516017 0.88717997702 -0.38855852796 0.24562260381 0.88552562571 -0.36694765601 0.28284394534 
0.88175138142 -0.34477746838 0.31948116876 0.87657950846 -0.32223852836 0.35573328773 0.86983743267 -0.29924686214 0.39036667069 
0.86198953645 -0.27593636203 0.42386005355 0.85304200558 -0.25197804235 0.45551976904 0.84326785862 -0.22753274449 0.48580108219 
0.83255154852 -0.20168651615 0.51464753523 0.82107982966 -0.17471704798 0.54234354432 0.80843162952 -0.14465459243 0.56918405271 
0.79477764785 -0.11194792175 0.59529318796 0.7793895261 -0.072584689599 0.62047126823 0.76242086452 -0.027154496285 0.64480076107 
0.74388449716 0.031582165889 0.66425533776 0.72382575335 0.10324054778 0.67897595377 0.70822449023 0.18658947849 0.67551026967 
0.69723279576 0.28202783622 0.65323777408 0.69624570676 0.36262204112 0.61513705169 0.70628959129 0.42684923808 0.5595842917 
0.71912646392 0.47249794817 0.50726863254 0.73523433032 0.4963885583 0.45874408746 0.75099652466 0.51287137343 0.4143565803 
0.76632721871 0.52010708373 0.37513331207 0.78135849185 0.52415252117 0.33720069553 0.79599127146 0.5239520858 0.30098578251 
0.81033365182 0.52178838515 0.26472157797 0.82426338537 0.51683495567 0.22838733195 0.83766237665 0.51047958753 0.19148755844 
0.85025585308 0.50199647783 0.15372947609 0.86188694245 0.49268292128 0.1154272821 0.87195629047 0.48202173316 0.076242115261 
0.88059136357 0.47133762013 0.036909079476 0.8867355968 0.46061369443 -0.0026807535656 0.89111217445 0.45093622735 -0.041518847585 
0.89219861286 0.4432065348 -0.078957728949 0.89185202839 0.43753108716 -0.11291598522 0.88864307236 0.43595886233 -0.1399219155 
0.8859491846 0.43523243304 -0.16014817067 0.88436131431 0.43632219922 -0.16581627949 0.88489947758 0.43503722574 -0.16606754021 
0.89035353995 0.42826128499 -0.15379374982 0.89684797031 0.41903814064 -0.14071579839 0.90593804979 0.40370938557 -0.1256315185 
0.91488027408 0.38769394547 -0.11153947955 0.92342306032 0.36982339204 -0.10012802827 0.93145819824 0.35238118059 -0.089732058301 
0.93800537557 0.33619447605 -0.082312550804 0.94407430537 0.32081712064 -0.075586787387 0.94861569754 0.30802485174 -0.071076864338 
0.95278141415 0.29610939235 -0.067005545353 0.9556338644 0.28725903632 -0.064467474782 0.95817725709 0.2793127049 -0.062226457539 
0.95953382131 0.27483796672 -0.061126170683 0.96059158335 0.27135152617 -0.060265764628 0.9603821626 0.27205633265 -0.060422663156 
0.95983984956 0.27384688978 -0.060809680784 0.95772640843 0.28076178704 -0.062282775176 0.95520628111 0.28881959081 -0.064002614391 
0.95053496707 0.30292285514 -0.067027622553 0.94538237378 0.31806249105 -0.070305633633 0.93734600236 0.33941196414 -0.07509961344 
0.92881834838 0.36147085088 -0.080106108646 0.91692161218 0.38839470358 -0.086569976676 0.9046584098 0.41554673301 -0.09314306473 
0.88946592299 0.44452265395 -0.1005891843 0.87414853366 0.47329221092 -0.10801725987 0.85764570619 0.50010318665 -0.11527408142 
0.84122699538 0.52652624389 -0.12243755475 0.82578333869 0.54845267093 -0.12851896445 0.8105161122 0.57001661086 -0.13449767731 
0.79784761275 0.58624130047 -0.1389637178 0.78533984867 0.60222071579 -0.14335667764 0.77604628114 0.61329542516 -0.1462882566 
0.76685890425 0.62423339954 -0.14917983915 0.76086318487 0.63106167811 -0.15086929281 0.75495927633 0.63778539708 -0.15253287631 
0.75495927633 0.63778539708 -0.15253287631 0.75495927633 0.63778539708 -0.15253287631 
FrenetTangent 3 128 double
-0.35759063608 0.44238949794 0.8224478519 -0.35759063608 0.44238949794 0.8224478519 -0.36654938569 0.43187638558 0.82409000445 
-0.38047929783 0.41526085547 0.82631345496 -0.3986517284 0.39308594932 0.82858930472 -0.42021891572 0.36602239299 0.83032744788 
-0.44431439407 0.33480791321 0.83095630479 -0.47014016274 0.30017628659 0.82997736375 -0.49702680972 0.26278934824 0.82698616002 
-0.52446004578 0.2231836497 0.82166338539 -0.55207428537 0.18173987867 0.81374725802 -0.57962286743 0.13868060008 0.80299752348 
-0.60693567038 0.094089208132 0.78916177868 -0.63386888586 0.047946713852 0.77195294427 -0.66025792632 0.00017965078101 0.75103890609 
-0.68587771388 -0.04928827645 0.72604574746 -0.71041174997 -0.10048056643 0.69657648631 -0.73343511008 -0.15331394303 0.66224449728 
-0.7544154524 -0.20755066271 0.62271987891 -0.77273204767 -0.2627628027 0.5777896607 -0.78772016628 -0.31831539904 0.5274203697 
-0.79873469288 -0.3733773694 0.47181800559 -0.805229641 -0.42696684601 0.41146632628 -0.8068431261 -0.47802840453 0.34712103699 
-0.80345465416 -0.52553279624 0.27977830294 -0.79521636407 -0.56858016031 0.21058854579 -0.78253979093 -0.60648554708 0.14073647997 
-0.76603640775 -0.63882740803 0.071328568886 -0.74643191766 -0.66545363539 0.0032941532349 -0.7244689302 -0.68645211859 -0.062675817099 
-0.70082583711 -0.70208864345 -0.12615340971 -0.67604965893 -0.71274628911 -0.18694808375 -0.65051549352 -0.71886848393 -0.24506671641 
-0.62442193083 -0.72090720369 -0.30064939044 -0.59779877987 -0.71929911954 -0.35390026196 -0.57052923522 -0.71445409888 -0.40503300156 
-0.54239300515 -0.70675485697 -0.45421074416 -0.5131043496 -0.69657330592 -0.501507284 -0.48236179776 -0.68428620298 -0.54688160371 
-0.44989195049 -0.67029474958 -0.59017131544 -0.41548671575 -0.65504415818 -0.63110057825 -0.37904643596 -0.63903173617 -0.6692998129 
-0.34059466032 -0.62280806239 -0.70434749576 -0.30029044281 -0.60696564841 -0.73581135599 -0.25842210955 -0.59211904713 -0.76329093229 
-0.21538232975 -0.57887907645 -0.78645372838 -0.17164127714 -0.56782264348 -0.80505696539 -0.12771744361 -0.55946272615 -0.81895647787 
-0.084142184052 -0.55422816487 -0.82810098064 -0.041434066717 -0.55245859173 -0.83250989336 -7.3716299955e-05 -0.55440671264 -0.83224587205 
0.039497508671 -0.56024758666 -0.82738297568 0.076880786891 -0.57010452132 -0.81796710165 0.1117205795 -0.58407406687 -0.80397512183 
0.14368550764 -0.60224477608 -0.7852742862 0.17244888434 -0.62471125632 -0.76157549101 0.19765893317 -0.65157675074 -0.73237878453 
0.21890760727 -0.68292547145 -0.69691625029 0.23569309242 -0.71875945165 -0.65408991496 0.24736209948 -0.75889741487 -0.60240078473 
0.25304013873 -0.80279885772 -0.53989321373 0.25157578031 -0.84928564522 -0.464137393 0.24148695204 -0.89613362659 -0.3723285851 
0.22099682796 -0.93951767553 -0.26166187991 0.18828795774 -0.97344172344 -0.13022617262 0.14212712728 -0.98961744753 0.021381937291 
0.082943795417 -0.97866106849 0.18799691439 0.013960739942 -0.93332360558 0.35876474883 -0.058715165751 -0.85270753259 0.51907840755 
-0.12780202002 -0.74409040602 0.65574088735 -0.18738305448 -0.62006250356 0.76184649542 -0.23437870314 -0.49329106067 0.83769359134 
-0.26829654245 -0.37296335978 0.88820903934 -0.29012027108 -0.26417222229 0.919806102 -0.30132791974 -0.1689813759 0.93842782321 
-0.30334574889 -0.087734688768 0.94883295738 -0.29735203463 -0.020027959269 0.95455782871 -0.28425006023 0.034732952887 0.95812083019 
-0.26470776142 0.077040320627 0.96124637323 -0.23922440048 0.10717012864 0.96503173509 -0.2081844299 0.12513825754 0.97005136959 
-0.17191735552 0.13071520131 0.97640051158 -0.13075842113 0.12349190501 0.98369303378 -0.085121411741 0.10296644696 0.99103595094 
-0.035591890373 0.068697331508 0.99700245435 0.01696051437 0.020534577044 0.99964527313 0.071266739843 -0.041082167018 0.99661091071 
0.12559290104 -0.11481219813 0.98541594384 0.17779842919 -0.19818087218 0.96390459096 0.22555037926 -0.28759130427 0.93081591527 
0.26670644967 -0.37870197879 0.88625757033 0.29973909644 -0.46710282902 0.831848196 0.32400625498 -0.54907534303 0.77041301547 
0.33979782016 -0.62210922789 0.70534923973 0.34813319776 -0.6850260586 0.63995513566 0.35044227064 -0.73778310221 0.57694567252 
0.34828655456 -0.78109808848 0.51824921812 0.34314783439 -0.81608374284 0.46503428737 0.33631966152 -0.84397621128 0.41784355932 
0.32888177022 -0.86595765983 0.37676798246 0.32170451384 -0.88307143511 0.34160071174 0.31547440273 -0.89619026037 0.31195980259 
0.31072599875 -0.90601652403 0.28737329709 0.30788083334 -0.91309474047 0.26733385008 0.30726484809 -0.9178339333 0.25133480461 
0.30911332649 -0.92053399963 0.2388851333 0.31359219272 -0.9214026922 0.22951473913 0.32079102767 -0.92057797771 0.22277635314 
0.33072639994 -0.91814420633 0.21824588146 0.34333309959 -0.91415357783 0.21551245643 0.35844760278 -0.9086487123 0.21417944274 
0.37582307751 -0.90167632004 0.21386170366 0.39512559068 -0.89330686806 0.21419292021 0.41594647256 -0.88364913686 0.21483187586 
0.43781726024 -0.87286180409 0.21547231282 0.46022421209 -0.86116205741 0.21585547361 0.4826513272 -0.84881492372 0.21577979891 
0.50459752287 -0.83612615763 0.21511482616 0.52559119015 -0.8234333486 0.21380229477 0.54522206586 -0.81107758076 0.21186329765 
0.56314593759 -0.79938757502 0.20939474175 0.57908193666 -0.78866727875 0.20656242168 0.59281262323 -0.77918417869 0.20358096527 
0.60417550372 -0.77116412914 0.20069341451 0.61305297181 -0.76478881938 0.19815174869 0.61936082894 -0.76020016503 0.19618326295 
0.62304626434 -0.75749647101 0.19496781503 0.62304626434 -0.75749647101 0.19496781503 
FrenetNormal 3 128 double
-0.64575477807 -0.75333496862 0.12444754578 -0.64575477807 -0.75333496862 0.12444754578 -0.64196653479 -0.75851314952 0.11196771951 
-0.63582730076 -0.76628937745 0.09232677627 -0.6274503763 -0.7758389309 0.066181406591 -0.61694906534 -0.78625253544 0.034362789396 
-0.60451436446 -0.79659099467 -0.0022738439289 -0.59029489132 -0.80604952323 -0.042849823545 -0.57444648886 -0.81394801474 -0.086601736379 
-0.55697645436 -0.81983825248 -0.13282495647 -0.53775279137 -0.82346201493 -0.18092054979 -0.51650772125 -0.82470382361 -0.23039830122 
-0.49284828094 -0.82354141601 -0.28085602734 -0.46626345463 -0.82001345441 -0.33192819323 -0.43626478065 -0.81407969929 -0.38333703756 
-0.40237116143 -0.80563341906 -0.43480138286 -0.36424022926 -0.79439845216 -0.48606599818 -0.32165293629 -0.77998857354 -0.53680276986 
-0.27462759264 -0.76186579411 -0.58663463682 -0.22333403411 -0.73952421278 -0.63500066765 -0.16829591271 -0.71238945468 -0.6813059156 
-0.1101902664 -0.68012786308 -0.724764924 -0.050061273191 -0.64248727539 -0.76465938162 0.010839681782 -0.59945844243 -0.8003324791 
0.071247636839 -0.55142141689 -0.8311787986 0.12971164324 -0.49880888141 -0.85695075088 0.18497154041 -0.44231080806 -0.87758001248 
0.23592824533 -0.3826461331 -0.89326356686 0.28182122965 -0.32059233445 -0.90432148576 0.32227383065 -0.25693373014 -0.91111175846 
0.35716177012 -0.1922825044 -0.91403660128 0.3871002662 -0.12765533763 -0.91315798123 0.41288162125 -0.063896004517 -0.90854062509 
0.43584134474 -0.0021613794335 -0.90002091679 0.45756134799 0.056330704767 -0.88739194527 0.47976781571 0.11033783084 -0.87043001218 
0.50392127271 0.1589021682 -0.84900733322 0.53141492779 0.20102171047 -0.82291460459 0.5628116535 0.23630396389 -0.79208805024 
0.59857682199 0.2641160489 -0.75627276884 0.63846906854 0.28415357454 -0.71527197246 0.68201055263 0.29593233335 -0.66879418372 
0.72842722052 0.29886187812 -0.61650252409 0.77667007426 0.29222653058 -0.55802083346 0.82546983109 0.27509076632 -0.49287384617 
0.87323075906 0.24633129429 -0.42046276278 0.91776342817 0.20489609065 -0.3401880097 0.95615384307 0.14996109661 -0.25155814017 
0.98467398559 0.081160442527 -0.15437008993 0.99879792396 -0.0010613331477 -0.049005924767 0.99351941786 -0.094635739906 0.062954293489 
0.96429096444 -0.19564483115 0.1785106046 0.90826052538 -0.29836884878 0.29332379398 0.82566125616 -0.3956545622 0.40217030906 
0.72063523352 -0.48017584865 0.50011600113 0.6004629604 -0.54622146995 0.58402597455 0.47383961148 -0.59053036153 0.65326098514 
0.34886590894 -0.61224784057 0.70953869471 0.23145615569 -0.61216753186 0.75609454496 0.12437766685 -0.59170806395 0.79649969432 
0.028300743506 -0.55167353528 0.83357985723 -0.057395894707 -0.49180898355 0.86880932026 -0.13413467533 -0.41082594561 0.901792621 
-0.20270889793 -0.30668601348 0.92997461892 -0.26305787757 -0.17774019469 0.94826630028 -0.31361919947 -0.024532084865 0.9492318866 
-0.35137752592 0.14781121362 0.92449211971 -0.37255096629 0.32810987217 0.86807239865 -0.37471479246 0.50077960274 0.78026188795 
-0.3580257458 0.65119349851 0.66915214476 -0.32499845505 0.77103918007 0.54760805967 -0.27887847978 0.8595957955 0.4281610233 
-0.22181061082 0.92115679465 0.31979714287 -0.15364886508 0.96153401809 0.22769356229 -0.072010869344 0.98539385084 0.15431588843 
0.028449075129 0.99447448206 0.10105025803 0.15554226746 0.98540750261 0.069127829704 0.3199609894 0.94548750796 0.060649299761 
0.52759543438 0.84595420206 0.077489003318 0.75658606835 0.64350677332 0.11608856047 0.93163762443 0.32738312087 0.15770741552 
0.98426515022 -0.01828153911 0.17574953596 0.9406995491 -0.29782567195 0.16243222417 0.86098551483 -0.49298686692 0.12517145163 
0.77713465055 -0.62533568433 0.070830902962 0.69834563858 -0.71575500086 0.0028544375175 0.62459520252 -0.77717297078 -0.076700759315 
0.55361897818 -0.8161291336 -0.16564801326 0.48316571095 -0.83573611215 -0.26095219218 0.41174936944 -0.83776913619 -0.35861585466 
0.33909880424 -0.82389561611 -0.45410132649 0.2659739194 -0.79645305758 -0.54306574304 0.19352237006 -0.75865658993 -0.62208461711 
0.12366473732 -0.71390825792 -0.68923293016 0.057664748516 -0.66571760604 -0.74397234208 -0.0030974583324 -0.616919983 -0.78701978395 
-0.057555910402 -0.56964142414 -0.81987557902 -0.10479034831 -0.52526683318 -0.8444606189 -0.14372671909 -0.48449100669 -0.86290850886 
-0.17250441376 -0.44733654619 -0.87757178719 -0.18869855276 -0.41333793048 -0.89081120975 -0.18764711007 -0.3811720924 -0.90526040345 
-0.16169496039 -0.34831795432 -0.92332515534 -0.094835951429 -0.30903576042 -0.94631022456 0.039021500598 -0.25173724782 -0.96700862486 
0.27536333036 -0.15379506631 -0.94895843632 0.59135015545 0.0003893061038 -0.80641480771 0.82941320514 0.15945991759 -0.53539356535 
0.9207882851 0.26326247332 -0.28782252197 0.93786989153 0.32142385938 -0.13071636918 0.93274771174 0.35809534804 -0.041826163508 
0.92263642879 0.38564376876 0.0045720769856 0.91194489021 0.40951216966 0.025618355132 0.90157343455 0.43160519248 0.029703534076 
0.89135485404 0.4527306059 0.022836870661 0.88113645199 0.47280118559 0.0075889312905 0.87068401581 0.49165784695 -0.013487258579 
0.85993812519 0.50889416191 -0.039155495236 0.8488976214 0.52414092205 -0.068184471907 0.83762955883 0.5371482315 -0.099239606929 
0.8262986565 0.54775065095 -0.13114783509 0.81516489324 0.55605913919 -0.16218640679 0.80458813384 0.56209939937 -0.19152597764 
0.79502439038 0.56631422002 -0.21731181032 0.78698432981 0.56911616699 -0.23824872109 0.78090506367 0.57068663907 -0.25397645859 
0.77726248406 0.57166304703 -0.26280104933 0.77726248406 0.57166304703 -0.26280104933 
FrenetBinormal 3 128 double
0.67463301401 -0.48659835302 0.55506066267 0.67463301401 -0.48659835302 0.55506066267 0.67343931877 -0.48799650571 0.5552827157 
0.67153491907 -0.49026422664 0.55559143311 0.66886682137 -0.49351533892 0.55593145758 0.66542461154 -0.49782984879 0.55621536117 
0.66117100842 -0.50333532408 0.55633303799 0.65614035743 -0.51007682075 0.5561487825 0.65036572931 -0.51810268071 0.55551240345 
0.64398671545 -0.52730854182 0.55428044531 0.63720947796 -0.53747644271 0.55234333048 0.63028335329 -0.54829854503 0.54964679575 
0.62348188746 -0.55939856724 0.54620836589 0.61709693438 -0.57033240063 0.54213681518 0.61133666003 -0.58075314112 0.53758094942 
0.60635732868 -0.59036044913 0.53273382666 0.60219946936 -0.59902817544 0.52775093002 0.59884249004 -0.60672288569 0.52275712534 
0.5961853827 -0.61358229617 0.51776418888 0.59414399913 -0.61972546198 0.51277018251 0.59259887394 -0.62544110162 0.50759235908 
0.59150739266 -0.63088464071 0.50209916804 0.59084608333 -0.63632492752 0.49597529418 0.59066629424 -0.64198007778 0.48885059945 