# vtk DataFile Version 4.2
vtk output
ASCII
DATASET POLYDATA
POINTS 128 float
0 0 0 -0.224287 0.131666 0.215947 -0.693667 0.355435 0.618317 
-1.15199 0.460479 0.903181 -1.58659 0.464259 1.08551 -2.04712 0.440626 1.2597 
-2.52473 0.39949 1.43375 -2.99829 0.335927 1.59595 -3.466 0.259631 1.75595 
-3.93088 0.183415 1.92799 -4.39124 0.113885 2.11744 -4.84424 0.0553683 2.32654 
-5.28884 0.0104847 2.55565 -5.72472 -0.0196732 2.80379 -6.15244 -0.0394899 3.06587 
-6.57377 -0.0559327 3.33553 -6.99589 -0.0798343 3.60767 -7.42604 -0.128202 3.87364 
-7.85824 -0.24883 4.09852 -8.27773 -0.492312 4.24017 -8.64562 -0.843088 4.27959 
-8.92049 -1.25863 4.21198 -9.11251 -1.70332 4.06234 -9.25089 -2.14727 3.86489 
-9.34861 -2.58072 3.63209 -9.41142 -3.00241 3.36711 -9.44302 -3.40965 3.07381 
-9.44601 -3.79929 2.7562 -9.42153 -4.16933 2.41729 -9.37014 -4.51837 2.05963 
-9.29329 -4.84506 1.68568 -9.19309 -5.14821 1.29785 -9.0732 -5.42791 0.898164 
-8.93802 -5.68504 0.488451 -8.79092 -5.92172 0.0706335 -8.63448 -6.14082 -0.353264 
-8.46884 -6.34581 -0.780682 -8.29262 -6.54054 -1.2087 -8.1038 -6.72928 -1.63397 
-7.9 -6.91664 -2.0528 -7.67864 -7.10786 -2.46098 -7.43715 -7.30873 -2.85371 
-7.17484 -7.52554 -3.22343 -6.89225 -7.7653 -3.56045 -6.58885 -8.03938 -3.85265 
-6.26536 -8.36201 -4.08421 -5.95306 -8.7413 -4.20958 -5.70628 -9.17772 -4.1645 
-5.57096 -9.62619 -3.9507 -5.58248 -10.0095 -3.62229 -5.72644 -10.3031 -3.23277 
-5.95322 -10.5215 -2.83227 -6.23563 -10.6715 -2.44444 -6.56396 -10.7529 -2.07278 
-6.92452 -10.7624 -1.72068 -7.30003 -10.6951 -1.3915 -7.67144 -10.5513 -1.08319 
-8.01871 -10.3368 -0.789154 -8.32826 -10.0636 -0.50137 -8.59238 -9.74925 -0.210767 
-8.80936 -9.40987 0.0899711 -8.98279 -9.06001 0.406466 -9.11684 -8.71141 0.742673 
-9.21607 -8.37321 1.10099 -9.28331 -8.05368 1.48305 -9.31952 -7.76053 1.88982 
-9.32236 -7.50511 2.32289 -9.28604 -7.30283 2.78425 -9.20477 -7.17594 3.26649 
-9.07327 -7.15331 3.75173 -8.89725 -7.24534 4.21743 -8.69476 -7.44082 4.63682 
-8.48141 -7.72185 4.99675 -8.26907 -8.0644 5.30024 -8.06551 -8.45121 5.54931 
-7.87379 -8.87373 5.74364 -7.69595 -9.32477 5.87816 -7.53305 -9.79805 5.94189 
-7.38536 -10.2804 5.92051 -7.25221 -10.7496 5.7961 -7.13138 -11.1833 5.5665 
-7.01865 -11.5605 5.25167 -6.90946 -11.8764 4.87586 -6.79897 -12.1487 4.46705 
-6.68312 -12.3971 4.04658 -6.55898 -12.6414 3.62564 -6.42441 -12.9048 3.21949 
-6.27838 -13.2163 2.85112 -6.12544 -13.5924 2.54833 -5.97907 -14.0278 2.34541 
-5.84986 -14.5071 2.25665 -5.74203 -15.0021 2.26131 -5.6563 -15.4917 2.33897 
-5.58843 -15.9705 2.47571 -5.53331 -16.4343 2.66182 -5.4852 -16.8776 2.89412 
-5.43712 -17.2946 3.17049 -5.37977 -17.6796 3.48948 -5.29774 -18.0222 3.84909 
-5.16384 -18.3042 4.24599 -4.95507 -18.506 4.66355 -4.66067 -18.6081 5.05717 
-4.28521 -18.6079 5.39284 -3.86324 -18.5403 5.66756 -3.42423 -18.4389 5.89014 
-2.97741 -18.3241 6.08674 -2.5286 -18.2112 6.28138 -2.08216 -18.1084 6.48738 
-1.64245 -18.0215 6.7146 -1.21423 -17.9542 6.9681 -0.800581 -17.9077 7.2491 
-0.399721 -17.8784 7.55061 -0.00750438 -17.8614 7.86354 0.384704 -17.8498 8.17686 
0.785354 -17.8375 8.47961 1.19998 -17.8198 8.76226 1.63186 -17.7937 9.01752 
2.0788 -17.7601 9.24443 2.53731 -17.7209 9.44517 3.00317 -17.6798 9.62843 
3.47207 -17.6407 9.80422 3.93998 -17.607 9.9825 4.39997 -17.5842 10.1801 
4.83368 -17.587 10.44 5.18934 -17.6348 10.8082 5.29183 -17.7565 11.3168 
5.07237 -17.941 11.8993 4.89837 -18.0411 12.1883 
LINES 1 129
128 0 1 2 3 4 5 6 7 8 9 10 11 12 13 14 15 16 17 18 19 20 21 22 23 24 25 26 27 28 29 30 31 32 33 34 35 36 37 38 39 40 41 42 43 44 45 46 47 48 49 50 51 52 53 54 55 56 57 58 59 60 61 62 63 64 65 66 67 68 69 70 71 72 73 74 75 76 77 78 79 80 81 82 83 84 85 86 87 88 89 90 91 92 93 94 95 96 97 98 99 100 101 102 103 104 105 106 107 108 109 110 111 112 113 114 115 116 117 118 119 120 121 122 123 124 125 126 127 

CELL_DATA 1
FIELD FieldData 2
Length 1 1 double
54.031814898 
Tortuosity 1 1 double
1.4211506934 
POINT_DATA 128
SCALARS MaximumInscribedSphereRadius float
LOOKUP_TABLE default
1.24 1.0327 0.825395 0.720868 0.624264 0.686539 0.75507 0.990824 1.23674 
1.15318 1.04142 0.877206 0.707199 0.689478 0.692465 0.854596 1.04268 0.98235 
0.874353 0.856653 0.858711 0.973931 1.11252 1.11448 1.08541 1.02053 0.946508 
0.93 0.93 0.93 0.93 0.93 0.93 0.93 0.93 0.93 
0.93 0.937533 0.948668 1.04372 1.18281 1.33308 1.48977 1.5546 1.56208 
1.59223 1.63759 1.48119 1.18469 1.16654 1.32399 1.37413 1.35396 1.31479 
1.26237 1.26917 1.32005 1.41094 1.53364 1.63911 1.72988 1.80543 1.86695 
1.90414 1.9171 1.89966 1.84953 1.77523 1.67301 1.65493 1.73935 1.80259 
1.83909 1.83929 1.79081 1.71689 1.60631 1.49812 1.39361 1.34782 1.39826 
1.45199 1.51138 1.55423 1.56633 1.58058 1.59924 1.54198 1.31534 1.17398 
1.23194 1.30496 1.41535 1.48596 1.44868 1.42807 1.45734 1.49842 1.57864 
1.67015 1.80286 1.92191 1.98918 1.97933 1.65707 1.37892 1.3043 1.24963 
1.3018 1.35885 1.44655 1.51423 1.43146 1.36932 1.50013 1.62292 1.64844 
1.66082 1.45314 1.25309 1.25895 1.26567 1.32975 1.39383 1.4959 1.59304 
1.63042 1.6678 
TEXTURE_COORDINATES TCoords 2 float
0 0 0.00787402 0 0.015748 0 0.023622 0 0.0314961 
0 0.0393701 0 0.0472441 0 0.0551181 0 0.0629921 0 
0.0708661 0 0.0787402 0 0.0866142 0 0.0944882 0 0.102362 
0 0.110236 0 0.11811 0 0.125984 0 0.133858 0 
0.141732 0 0.149606 0 0.15748 0 0.165354 0 0.173228 
0 0.181102 0 0.188976 0 0.19685 0 0.204724 0 
0.212598 0 0.220472 0 0.228346 0 0.23622 0 0.244094 
0 0.251969 0 0.259843 0 0.267717 0 0.275591 0 
0.283465 0 0.291339 0 0.299213 0 0.307087 0 0.314961 
0 0.322835 0 0.330709 0 0.338583 0 0.346457 0 
0.354331 0 0.362205 0 0.370079 0 0.377953 0 0.385827 
0 0.393701 0 0.401575 0 0.409449 0 0.417323 0 
0.425197 0 0.433071 0 0.440945 0 0.448819 0 0.456693 
0 0.464567 0 0.472441 0 0.480315 0 0.488189 0 
0.496063 0 0.503937 0 0.511811 0 0.519685 0 0.527559 
0 0.535433 0 0.543307 0 0.551181 0 0.559055 0 
0.566929 0 0.574803 0 0.582677 0 0.590551 0 0.598425 
0 0.606299 0 0.614173 0 0.622047 0 0.629921 0 
0.637795 0 0.645669 0 0.653543 0 0.661417 0 0.669291 
0 0.677165 0 0.685039 0 0.692913 0 0.700787 0 
0.708661 0 0.716535 0 0.724409 0 0.732283 0 0.740157 
0 0.748031 0 0.755906 0 0.76378 0 0.771654 0 
0.779528 0 0.787402 0 0.795276 0 0.80315 0 0.811024 
0 0.818898 0 0.826772 0 0.834646 0 0.84252 0 
0.850394 0 0.858268 0 0.866142 0 0.874016 0 0.88189 
0 0.889764 0 0.897638 0 0.905512 0 0.913386 0 
0.92126 0 0.929134 0 0.937008 0 0.944882 0 0.952756 
0 0.96063 0 0.968504 0 0.976378 0 0.984252 0 
0.992126 0 1 0 
FIELD FieldData 7
Curvature 1 128 double
0 0.023539896312 0.041399761898 0.053957666933 0.060284624187 0.06075823911 0.056971623584 0.051338970206 0.046460266908 
0.04441984851 0.04651790781 0.053953826587 0.068461085507 0.091837784937 0.12537875993 0.16973688765 0.22443798403 0.28653578709 
0.34880944488 0.3995141279 0.42628175551 0.42324035774 0.39490606297 0.35254883353 0.30711790155 0.26541724575 0.23008158233 
0.20110750506 0.17740459205 0.15755939427 0.14030639906 0.12464411045 0.10994699968 0.09601037603 0.083167689642 0.072673708527 
0.067021550192 0.069601125903 0.082577383864 0.10603139062 0.14020933344 0.18730612919 0.25220596578 0.34290878592 0.47000089134 
0.64181335922 0.8488673369 1.0387336056 1.1224262742 1.0549988148 0.88925756144 0.70805772201 0.55568003878 0.43970711263 
0.35344097687 0.28858752198 0.23896315433 0.20089013593 0.17289663756 0.15524053516 0.14906436237 0.15515978139 0.1730268867 
0.20128777597 0.23839678939 0.28285661515 0.3324275449 0.38341762869 0.43044853772 0.46756292298 0.49031832766 0.49798176394 
0.49331023485 0.48069505909 0.46344711613 0.44247610205 0.41628066707 0.38233275813 0.33906177579 0.28705650505 0.22898053905 
0.16826299032 0.10762617025 0.048889518933 0.018066429029 0.07097018285 0.12738981246 0.18179695905 0.2305745006 0.26914255155 
0.29368244367 0.30341338019 0.30145227779 0.29366994532 0.28649870296 0.28475315075 0.29029427543 0.3010856871 0.31146557452 
0.31400269118 0.30264742021 0.27577120332 0.23668832842 0.19155681544 0.14636720486 0.1052311643 0.070348948634 0.042565399416 
0.022077445325 0.0094292087422 0.0078938350521 0.011502189838 0.01409277545 0.015221849832 0.015210061072 0.016649474807 0.025314660378 
0.043621314754 0.070608657995 0.1049209602 0.14374824555 0.18128004306 0.20813096216 0.21344625004 0.19019369519 0.13949512796 
0.069638508757 0 
Torsion 1 128 double
0 0 0.039616827489 0.060111060132 0.088183427534 0.12652166321 0.17508081319 0.22133273016 0.22499891853 
0.13372150228 -0.037381207349 -0.18568413638 -0.23666785312 -0.21249025375 -0.16640093611 -0.12607494132 -0.097465089986 -0.079121282534 
-0.06843868055 -0.063355939605 -0.062383246034 -0.064432016758 -0.06824158712 -0.072373929624 -0.075334119837 -0.075391178386 -0.07141180842 
-0.06236816671 -0.047338611776 -0.025398398217 0.0053746030089 0.048263580726 0.10952349861 0.19918188773 0.3322144791 0.51646903605 
0.70377832648 0.75706626967 0.63960837772 0.48362211376 0.36825361353 0.29660237803 0.25410077707 0.22793056284 0.20870388429 
0.18934457953 0.16516864606 0.13518905091 0.10007560354 0.057447874679 0.0033696886128 -0.060728071628 -0.12830779217 -0.19425840434 
-0.2576805498 -0.32204210452 -0.39302526005 -0.47607479605 -0.56984965018 -0.65371736596 -0.68584604383 -0.63816454631 -0.5356416304 
-0.4243580354 -0.32941369589 -0.25550315437 -0.19958260806 -0.15671914909 -0.12249174403 -0.093487992609 -0.066706583523 -0.040126129322 
-0.013135875722 0.013504053497 0.037118240283 0.054927346301 0.065300070958 0.06794552179 0.063571180021 0.052540655696 0.03305043333 
-0.0042531689059 -0.10438964952 -0.70811704558 -5.4256807465 -0.32890561069 -0.098716423498 -0.059478786852 -0.060577943759 -0.080161358109 
-0.11420483464 -0.16236005598 -0.22344836967 -0.29151476898 -0.35244364874 -0.38729859155 -0.38382203955 -0.34690415942 -0.29325147234 
-0.23832864097 -0.18998050463 -0.15002264373 -0.11780770749 -0.091976302774 -0.07238422331 -0.061593012751 -0.069329362082 -0.13225141727 
-0.41550020297 -1.7816363528 -1.5351212284 -0.27222534981 -0.062567894984 -0.2170944212 -0.67981442803 -1.1667597775 -0.82497763309 
-0.39556920456 -0.19459465495 -0.10482572309 -0.06135083491 -0.038276831552 -0.024820487802 -0.016356739731 -0.010901838864 -0.0071057101198 
0 0 
Abscissas 1 128 double
0 0.5020763135 1.004152627 1.5062272826 2.0083018103 2.5103804925 3.0124593384 3.5145360041 4.0166125374 
4.5186893094 5.0207661019 5.5228397051 6.0249129562 6.5269917449 7.0290712866 7.5311439669 8.0332155283 8.5352935802 
9.0373728776 9.5394500345 10.041526723 10.543602103 11.045677212 11.547753528 12.049830119 12.551906626 13.053983112 
13.556059652 14.058136209 14.560213294 15.062290549 15.564366359 16.066441654 16.568517204 17.070592853 17.572669371 
18.074746267 18.576822289 19.078897895 19.580974611 20.08305191 20.585130397 21.087209565 21.58928452 22.091356845 
22.593433289 23.095512499 23.597588412 24.099662036 24.601734624 25.103806559 25.605885651 26.107969433 26.610049215 
27.112126208 27.614204684 28.116284263 28.618363405 29.120442199 29.622520375 30.124598022 30.626674347 31.128749455 
31.630824524 32.132899553 32.634975553 33.137052598 33.639129883 34.141207444 34.643284691 35.145361557 35.647437803 
36.149513265 36.651589622 37.153667177 37.655744234 38.157820574 38.65989373 39.161961962 39.664029268 40.166095055 
40.668166512 41.170247713 41.672333 42.174425882 42.676506581 43.178562449 43.680623706 44.182696985 44.684774042 
45.186859926 45.688940072 46.191005962 46.693085094 47.195200134 47.697299565 48.199352325 48.701410307 49.203485588 
49.705561902 50.207641982 50.709720847 51.211795104 51.713870641 52.215951365 52.718032552 53.220115879 53.722197364 
54.224268995 54.726341128 55.228416411 55.730491655 56.23256661 56.73464217 57.236723401 57.738803983 58.240876714 
58.742949759 59.245028049 59.747106205 60.249180739 60.751255402 61.253338586 61.75542177 62.257489 62.759557225 
63.261637719 63.763718213 
ParallelTransportNormals 3 128 double
0.66257569879 0 0.74899495551 0.56456414803 0.027836525304 0.81526797214 0.46655259726 0.055673050609 0.88154098878 
0.40455161972 0.058583190387 0.91042497753 0.34532663289 0.05957179967 0.93642671296 0.33009946479 0.058173322653 0.94203989421 
0.31660480686 0.056680848901 0.94685023162 0.33535001487 0.059587707342 0.93993847668 0.35605401217 0.062761854885 0.93231452558 
0.39299968638 0.067762796563 0.9160520766 0.43133574408 0.07292012261 0.89905012118 0.46730417871 0.076137821377 0.87986040666 
0.50301122545 0.079141383402 0.86042916141 0.51977592831 0.080162958281 0.85036859666 0.53396494076 0.080915031913 0.84158221278 
0.50736994506 0.077022470798 0.8573949404 0.4741241897 0.072372496403 0.87721911236 0.36783441552 0.020469811395 0.91880584001 
0.24752766413 -0.040500558797 0.96456875145 0.14760649296 -0.14882935721 0.96628577966 0.052145614256 -0.26752001131 0.95836572524 
0.010875133862 -0.35375294766 0.93095025889 -0.019203950963 -0.43328271943 0.89950860204 -0.033247511407 -0.4956370652 0.86520681603 
-0.043649440761 -0.55409091082 0.83025550121 -0.046925648448 -0.60478955139 0.79264483022 -0.048380408892 -0.65350583881 0.7543543857 
-0.044765501761 -0.69617902277 0.71420569304 -0.039695615367 -0.73711785432 0.6735236888 -0.030846845724 -0.77237438189 0.63219558008 
-0.020787362229 -0.80581035993 0.59066046638 -0.0091896091773 -0.83273020506 0.5517217569 0.0029554076087 -0.8573318328 0.5137067593 
0.013764669447 -0.87501745695 0.48281386309 0.024048083726 -0.88998045327 0.45472472938 0.030725782596 -0.89855258895 0.43756359848 
0.035836968687 -0.904348198 0.42515016785 0.035083673986 -0.90396334954 0.42608571224 0.031526046423 -0.90062307149 0.43340459569 
0.018115275344 -0.88912764412 0.45581658122 -0.00046616890844 -0.87335260672 0.48614903374 -0.037787269818 -0.84108595762 0.53357333425 
-0.085861174059 -0.79935643198 0.59080492649 -0.17400709843 -0.7095508774 0.66139568489 -0.28717529443 -0.58972508797 0.74032834078 
-0.43744839616 -0.35272475519 0.75748864468 -0.61262481559 -0.037081590121 0.73318983488 -0.68853025516 0.25960137311 0.59506373756 
-0.69550594352 0.54311913946 0.37790057806 -0.64603541143 0.7126951476 0.19420219963 -0.56095565632 0.81039074554 0.031615152376 
-0.46393299199 0.86622961138 -0.10705144096 -0.35908587135 0.8946458312 -0.23004643005 -0.24906438765 0.89494330851 -0.34177054772 
-0.13543549203 0.87563723542 -0.44563694929 -0.04061570089 0.83969636333 -0.5307831569 0.040204148781 0.79137392291 -0.60199560069 
0.091302743086 0.75246977846 -0.65059454511 0.11877258582 0.72105329133 -0.68121548855 0.13027830355 0.70879656312 -0.69325788039 
0.12816339559 0.71288698231 -0.68944901217 0.12257935597 0.7299013478 -0.67137623033 0.11380174397 0.75881308771 -0.64017254272 
0.10683434177 0.79489927597 -0.59360634842 0.10166837684 0.83812514429 -0.53175209607 0.10420598567 0.88387119383 -0.44221248512 
0.11502481429 0.9323263983 -0.32291155206 0.14471673932 0.96040842873 -0.17235412731 0.19621636074 0.9649494363 0.014319897797 
0.25782758999 0.93486221384 0.18708630134 0.33175839034 0.86258536637 0.34290822526 0.3987297052 0.7805686392 0.46715105076 
0.4569240854 0.6862684914 0.55156798911 0.51032988666 0.58762678567 0.61959794562 0.55731737836 0.4831659292 0.66566382403 
0.60380930554 0.36728301868 0.69820515671 0.64958750176 0.23494962955 0.71126792194 0.69421981312 0.097420322437 0.70190800163 
0.73708030221 -0.048143162965 0.6578770464 0.77362212333 -0.17032540528 0.60387251302 0.79980917881 -0.25419145612 0.5335237019 
0.81909556472 -0.31394748895 0.47944650463 0.82651914728 -0.33225647108 0.45334151392 0.8283614101 -0.33802094431 0.44597694262 
0.81982828973 -0.32046582787 0.47344983648 0.80417214041 -0.28586558488 0.51534294436 0.77399600427 -0.21651958773 0.58663103561 
0.74158509566 -0.13215700315 0.65064424347 0.70418771167 -0.014287721738 0.69842491426 0.67245386037 0.094238865839 0.73136224254 
0.65395858135 0.18092679991 0.72960308824 0.63819034039 0.26073581668 0.72287982025 0.62919596728 0.32345784167 0.7038258662 
0.62041787218 0.38761028693 0.67966631326 0.61222628966 0.45564181129 0.64166116383 0.60161493186 0.52881081641 0.59331200057 
0.58376879493 0.61734014825 0.51403572744 0.55425032604 0.70913824276 0.4158977557 0.48606443769 0.81176490326 0.25527585059 
0.4004063908 0.90022153062 0.091653721892 0.2510742514 0.93703805876 -0.082902174011 0.1132404392 0.96321832081 -0.23365228953 
0.018992825254 0.94908016139 -0.29416289065 -0.058184969698 0.93735732403 -0.34343279882 -0.066217697203 0.93541828146 -0.34716980054 
-0.066629807692 0.93515084188 -0.34719248628 -0.031875719834 0.94259720315 -0.33007504117 0.0044954198834 0.94987896995 -0.31124519359 
0.049523737756 0.95627955062 -0.28324769118 0.091838249697 0.96203926406 -0.25648931558 0.11712170703 0.96377708165 -0.23750733851 
0.13890036368 0.965291032 -0.22116179747 0.13433027504 0.96512197052 -0.22463672208 0.12778918359 0.96484380327 -0.22931034336 
0.10281032645 0.9635450049 -0.24519718481 0.078029197969 0.96221377848 -0.26069900147 0.055643423855 0.96048970729 -0.27153649257 
0.034449872659 0.95885709239 -0.28179086488 0.033232063261 0.95875683129 -0.28227505888 0.03336830765 0.95872690776 -0.28216135957 
0.06999587133 0.9605925597 -0.26593462528 0.10785588129 0.9622463327 -0.24824296256 0.22786423094 0.9497773774 -0.13290693138 
0.34787258058 0.93730842211 -0.017570900205 0.36114580022 0.87760626036 0.21477903611 0.3731635208 0.82243203455 0.42936527025 
0.3731635208 0.82243203455 0.42936527025 0.3731635208 0.82243203455 0.42936527025 
FrenetTangent 3 128 double
-0.86844769408 0.10853100829 0.48375574714 -0.86844769408 0.10853100829 0.48375574714 -0.87347499447 0.094940653302 0.47752246689 
-0.88030760587 0.074721142414 0.46848187791 -0.88756631413 0.050033567326 0.45795488879 -0.89401185053 0.023225195458 0.44744094739 
-0.89881039259 -0.0036248690961 0.438322642 -0.90161478441 -0.029101018616 0.43155985825 -0.90249557084 -0.052698686907 0.42746297268 
-0.90180805699 -0.074897606322 0.42559673039 -0.90006009381 -0.09708667781 0.42481290531 -0.89778805399 -0.12138445665 0.4233703152 
-0.89540670139 -0.15039760359 0.41907922871 -0.892994032 -0.18694328095 0.4094067275 -0.88999138078 -0.2337306107 0.3915167222 
-0.8848361792 -0.292945142 0.36228176847 -0.8746091663 -0.36562179403 0.31840149176 -0.85490946436 -0.45071907866 0.25686985009 
-0.82037868867 -0.54405242378 0.17602774597 -0.76632110609 -0.63781445489 0.077101773586 -0.69118520823 -0.7218444575 -0.034692752926 
-0.5983157135 -0.78692392003 -0.15089417175 -0.49513097528 -0.82818257586 -0.26260033963 -0.39005056507 -0.84603930075 -0.3634254508 
-0.28962905295 -0.84444492972 -0.45058603215 -0.19753989198 -0.82842073701 -0.52411551547 -0.11504665407 -0.80248311822 -0.5854785328 
-0.04196514498 -0.77013118969 -0.63650363492 0.022560972565 -0.73395018384 -0.67882849834 0.079602713 -0.69589813783 -0.71371506208 
0.13023155682 -0.65757397924 -0.74204865301 0.1754545862 -0.62040510332 -0.76440381733 0.21621045644 -0.5857524925 -0.78111910491 
0.25338577853 -0.55495554053 -0.79235092937 0.28780105578 -0.52934093561 -0.79810320522 0.32018382663 -0.51021224856 -0.79822664613 
0.35110835579 -0.49882969274 -0.79239627721 0.38091031049 -0.49639252128 -0.7800652538 0.40959785768 -0.50402504283 -0.76038697463 
0.43673159523 -0.52276262763 -0.73210979291 0.46128131781 -0.55352132744 -0.69342172299 0.48141750924 -0.59701258502 -0.64172669815 
0.4941726223 -0.65350005351 -0.57335076474 0.49491120177 -0.72218594698 -0.48322909717 0.47662236821 -0.79982067908 -0.36485339444 
0.42945147492 -0.87800728912 -0.21136374084 0.34203870315 -0.93947967615 -0.019684096499 0.20776394282 -0.95733943398 0.20083663066 
0.035819687261 -0.90620563383 0.42131733791 -0.14559156071 -0.78376313119 0.60375363488 -0.30554712784 -0.61566616959 0.72635812124 
-0.42800303059 -0.43418647799 0.79265093713 -0.51183118693 -0.26028225979 0.81870750658 -0.56234723218 -0.10275002659 0.82049254871 
-0.58568965251 0.036155099041 0.80972862106 -0.58707112871 0.15650788986 0.79426240642 -0.57070710824 0.25883238273 0.77929403581 
-0.54010560804 0.34350805601 0.76830212001 -0.49826854613 0.4106897411 0.76358522281 -0.44774415909 0.46036070471 0.76654627359 
-0.39060037396 0.49234423704 0.77783577966 -0.32838371843 0.50624776916 0.79741916812 -0.26212170204 0.50139519886 0.82455749822 
-0.19240271334 0.47676246836 0.85771717055 -0.11957493341 0.43100163459 0.89439332862 -0.044039331708 0.36268958218 0.93086884374 
0.033374084548 0.27087393934 0.96203611131 0.11099652086 0.15595610733 0.98150775083 0.18610319619 0.020738923186 0.98231130373 
0.25512360967 -0.12889426817 0.95827877542 0.31436274278 -0.28432827442 0.90572263873 0.36100864764 -0.43578856568 0.82447624729 
0.39383522468 -0.57438572417 0.71761748562 0.41322231198 -0.69349186272 0.5901833251 0.42065910047 -0.78895231229 0.44788410345 
0.41812451213 -0.85861038134 0.29658068954 0.40772288884 -0.90192530226 0.14245278186 0.39161216433 -0.92009776394 -0.0077470986657 
0.37203670202 -0.91650199699 -0.14701286291 0.35126851091 -0.8967795969 -0.26906651191 0.33138661172 -0.86815406724 -0.3694474646 
0.31399515328 -0.83814270674 -0.44600879683 0.30003997341 -0.81328762547 -0.49853711258 0.28978734887 -0.7983829819 -0.52783321858 
0.2829267558 -0.79620833392 -0.53479410978 0.27872928945 -0.80751252367 -0.51983988623 0.27619969974 -0.83101230905 -0.48283772436 
0.27426571161 -0.86335528886 -0.42355160799 0.27205232005 -0.89925291499 -0.34253719513 0.26923863747 -0.9321294713 -0.24216772043 
0.26640152024 -0.95543382546 -0.12718661555 0.26515337064 -0.96419702145 -0.0042182780489 0.26793019652 -0.95597711378 0.11967108143 
0.27750944987 -0.93065007583 0.23849306404 0.29647513968 -0.88935690047 0.34806148184 0.32674956479 -0.8334075221 0.44572034283 
0.36918020638 -0.76373845622 0.52953710513 0.42310017182 -0.68109586698 0.59757398252 0.48592756046 -0.58683684294 0.64768582334 
0.55314045654 -0.48392738201 0.678122352 0.61903853812 -0.37743954693 0.68871668829 0.67825351333 -0.27391463388 0.68186724881 
0.72725421609 -0.17973630118 0.66241691344 0.76495311758 -0.099500974193 0.63635389843 0.7922337355 -0.035303621915 0.60919566858 
0.81098901597 0.012951393031 0.58491800913 0.82330881596 0.046785550514 0.56566218349 0.83105514175 0.068432982427 0.55196401901 
0.83575296025 0.080359820416 0.54319360149 0.83862329152 0.084992448143 0.53804020174 0.84063118411 0.084540327916 0.53496929375 
0.84247515936 0.080867679343 0.5326312273 0.84451959384 0.075389891005 0.53019149366 0.84671894327 0.06900284079 0.5275468122 
0.84857191034 0.062072345765 0.52542624303 0.84914267943 0.054476635267 0.52534655816 0.84712335272 0.04570910646 0.52942676817 
0.84088595263 0.035009513037 0.54007883561 0.82850192255 0.021530916289 0.55957214368 0.8077732458 0.0045128798221 0.58947605319 
0.77644173158 -0.016482989408 0.62997345064 0.73286261052 -0.041220779835 0.67912682278 0.67731145871 -0.068456879089 0.73250450074 
0.61352674757 -0.095861417333 0.78383385911 0.54924705717 -0.12045985847 0.82693233864 0.49460551804 -0.13948381977 0.85785176199 
0.45900865642 -0.15107786637 0.87549216537 0.45900865642 -0.15107786637 0.87549216537 
FrenetNormal 3 128 double
-0.32882713972 -0.85633625675 -0.39819709638 -0.32882713972 -0.85633625675 -0.39819709638 -0.30995945409 -0.86479681274 -0.39503368146 
-0.28070759106 -0.87813314053 -0.3874086161 -0.24211773601 -0.89638324096 -0.37131669399 -0.19466810551 -0.91960342456 -0.34122407628 
-0.13785136342 -0.94689190154 -0.29050426573 -0.071343499663 -0.97406334464 -0.21473403474 0.00040478517346 -0.99258960195 -0.12151427177 
0.062174552988 -0.99710681503 -0.043730131224 0.09452757118 -0.99515183917 -0.027154286635 0.092842595984 -0.99182969222 -0.087487793479 
0.073622604965 -0.97827886234 -0.19377868699 0.059665337833 -0.95079799553 -0.30401187338 0.064977055385 -0.91487857878 -0.39846601908 
0.094055224033 -0.87389793009 -0.47692349766 0.14713478777 -0.82592109751 -0.54424782491 0.22246078294 -0.76581550085 -0.6033554663 
0.3158958651 -0.68779960379 -0.65356063792 0.41990906843 -0.58807504136 -0.69126269969 0.52379700117 -0.4673196061 -0.71221421449 
0.61626421592 -0.33158486473 -0.71433178122 0.68901096154 -0.19017526058 -0.69935489213 0.7389160726 -0.052092620484 -0.67178076524 
0.76722351627 0.076637419972 -0.63678472182 0.77772180454 0.19303447765 -0.59823614499 0.77504151509 0.29615229646 -0.5582154308 
0.76371872894 0.38602270483 -0.5174168285 0.74828596243 0.46268433244 -0.47538545092 0.73296723058 0.52611585468 -0.43123212584 
0.72225570782 0.57565473542 -0.38336447163 0.72081772413 0.6098066841 -0.32948082889 0.73401989997 0.62505815727 -0.2655505347 
0.76737263482 0.61403397539 -0.18466595897 0.82389274518 0.5617014492 -0.075446844904 0.89436531082 0.44064387962 0.077095149961 
0.93554416684 0.22166491864 0.27499413765 0.87800916067 -0.07027576724 0.47345668262 0.72036573269 -0.33271723222 0.60858233178 
0.53510791524 -0.50322886128 0.67854272689 0.36555808139 -0.59355390616 0.71698050852 0.21544615289 -0.62908842305 0.74688065391 
0.076937812885 -0.62404377126 0.77759240255 -0.057686365559 -0.58219075142 0.81100321343 -0.19302940496 -0.50011348327 0.84417187389 
-0.32936074547 -0.37019753869 0.86860536591 -0.45984279594 -0.18561063222 0.86838545372 -0.56761691889 0.049221054276 0.82182012704 
-0.62949402028 0.30697826649 0.71379382341 -0.6310384551 0.54356963649 0.55346410766 -0.57759851065 0.7263013895 0.37264762458 
-0.4857321868 0.85011662666 0.20338624287 -0.36966493326 0.92698573368 0.063602568164 -0.23674827764 0.97071820084 -0.040699233355 
-0.089642382419 0.98998674091 -0.10904355136 0.071232221318 0.98731501645 -0.14189795258 0.24593627818 0.9593366689 -0.13852257141 
0.43260561785 0.89638685788 -0.096659093837 0.62284988454 0.78221114026 -0.014274221043 0.7936286469 0.59953348927 0.10350442531 
0.90724267382 0.34908931819 0.23462177804 0.93696881072 0.067882608669 0.34275559685 0.89568631814 -0.19164734502 0.40126962836 
0.81979015154 -0.40232504926 0.40752749869 0.73721174484 -0.56485131903 0.37075845324 0.6596071558 -0.68924991687 0.29975482 
0.58808871884 -0.78361789356 0.20023649932 0.5194313348 -0.85108180722 0.076490822021 0.44981112737 -0.8906508885 -0.066414941859 
0.37675591358 -0.89949163076 -0.22129118326 0.29999547068 -0.87544384323 -0.37894695529 0.22175885019 -0.81862147019 -0.52979420618 
0.14544971642 -0.73193474241 -0.66566952225 0.074630492934 -0.62013374157 -0.78093817431 0.011838938053 -0.48887328812 -0.87227446811 
-0.042010625093 -0.34441872952 -0.93787570932 -0.086948378695 -0.19364926056 -0.97721028613 -0.12368239522 -0.0442948341 -0.99133275583 
-0.15305484603 0.095642643236 -0.9835785169 -0.17637448074 0.2188544656 -0.95968472189 -0.1958944188 0.3197298816 -0.92703731289 
-0.21677179774 0.39407100592 -0.89315061999 -0.25369493362 0.43576427925 -0.86356723744 -0.38429955729 0.40802383461 -0.8281487793 
-0.65557279046 -0.56753301338 0.49812708734 -0.099031667412 -0.56257320303 0.82079480998 -0.036521956307 -0.51109233985 0.85874953674 
-0.025426757349 -0.44679728809 0.89427381901 -0.026750264957 -0.36289304759 0.93144675604 -0.028081620873 -0.25894439324 0.96548393243 
-0.021368700601 -0.1377772043 0.99023271033 0.00066216013376 -0.0041927800701 0.99999099103 0.044386655539 0.13632884637 0.98966876805 
0.11367739273 0.2783078294 0.95374116115 0.20643059305 0.41550678455 0.88585581346 0.31135498413 0.5402011426 0.78181890447 
0.40982220203 0.6451829512 0.64481371124 0.48402143777 0.72742369538 0.48639286094 0.5248398454 0.78849456918 0.32065472249 
0.53255665293 0.8313502097 0.15887177301 0.51352950615 0.85802830783 0.0086527030586 0.47665041101 0.87022599659 -0.12454356885 
0.43129264905 0.8704378465 -0.23732805619 0.38542823111 0.86228717394 -0.32849034738 0.34473678395 0.84964300736 -0.39907807485 
0.31286694558 0.83519706095 -0.4522832561 0.29274178954 0.81881672814 -0.49380300766 0.29057097596 0.79278303634 -0.53578313263 
0.32925449844 0.71832946128 -0.61285745514 0.48254892624 0.3423146803 -0.8062054288 0.45884706534 -0.63593622586 -0.62051953013 
0.33337339138 -0.85489734983 -0.3975081171 0.31341672067 -0.8723568592 -0.37518458045 0.2933746746 -0.88773918672 -0.35475405095 
0.19950969261 -0.95732249217 -0.20911606473 -0.044426670914 -0.98377428732 0.17382296314 -0.30278902008 -0.77721883687 0.55158833284 
-0.42623097346 -0.57212365054 0.70071512454 -0.4891992973 -0.45847143611 0.74194877841 -0.53920795585 -0.39847137436 0.74194025647 
-0.59144470059 -0.36416791922 0.71942678068 -0.6490204841 -0.34188482293 0.67962282118 -0.70938309248 -0.32467436143 0.62558947172 
-0.76680666643 -0.30946297025 0.56235238629 -0.81507920689 -0.29548726731 0.49833037371 -0.84997470449 -0.28364993467 0.44394337058 
-0.87002949281 -0.27596692626 0.40852287237 -0.87002949281 -0.27596692626 0.40852287237 
FrenetBinormal 3 128 double
0.37104085331 -0.50488536879 0.77937118855 0.37104085331 -0.50488536879 0.77937118855 0.37545515158 -0.49306464588 0.7848061443 
0.38244184835 -0.47254517073 0.79400207446 0.39192478862 -0.44044719032 0.80771358327 0.40354323164 -0.39216084944 0.82665756415 
0.41609719991 -0.32153162695 0.85057658861 0.42661561808 -0.22439637104 0.87615374397 0.43069894446 -0.1094930614 0.89582905107 
0.42764068248 -0.012974898206 0.90385568467 0.4253896635 0.015716042369 0.90487382557 0.4305309077 -0.039238696729 0.90172249733 
0.43912020124 -0.14265703041 0.88703011253 0.44609607292 -0.24705339788 0.86021096966 0.45132396836 -0.32919171877 0.82942117641 
0.45630970932 -0.38792467254 0.80080952643 0.46196337566 -0.42915620049 0.77615384759 0.46865873277 -0.45867083054 0.75497023875 
0.47664306308 -0.48056078201 0.7361200481 0.48623897068 -0.4973534627 0.71847838974 0.49789527965 -0.51044389009 0.7011043614 
0.51209054195 -0.5203866078 0.68334548749 0.52925344798 -0.52720678231 0.66478853516 0.5494211448 -0.53056937387 0.64547079343 
0.57226138064 -0.53013155588 0.6256815849 0.5967635929 -0.52579156795 0.60614886065 0.62134927156 -0.51799098668 0.58788640097 