# vtk DataFile Version 4.2
vtk output
ASCII
DATASET POLYDATA
POINTS 128 float
0 0 0 -0.233226 0.029607 0.238424 -0.69048 0.098449 0.708389 
-1.07036 0.180951 1.10413 -1.38307 0.273531 1.43129 -1.71681 0.378105 1.77338 
-2.07216 0.490379 2.12625 -2.4296 0.604402 2.46579 -2.79197 0.714727 2.79121 
-3.16711 0.816487 3.10774 -3.55431 0.90702 3.41595 -3.95026 0.985081 3.71544 
-4.35212 1.0533 4.00864 -4.75731 1.11556 4.2987 -5.16378 1.1755 4.58764 
-5.56993 1.23621 4.87681 -5.97579 1.29819 5.16608 -6.3822 1.3605 5.45454 
-6.79151 1.41933 5.73961 -7.20678 1.46922 6.01778 -7.6319 1.5014 6.28359 
-8.07051 1.50527 6.53036 -8.52186 1.46707 6.74871 -8.98234 1.37288 6.9289 
-9.44131 1.21881 7.06813 -9.88591 1.0069 7.16804 -10.3121 0.749153 7.24002 
-10.7205 0.46211 7.29963 -11.1167 0.15896 7.35704 -11.5084 -0.149057 7.41876 
-11.9033 -0.452671 7.48317 -12.3088 -0.743728 7.54327 -12.7302 -1.0146 7.58269 
-13.1709 -1.25821 7.58005 -13.6236 -1.4701 7.51842 -14.0745 -1.64807 7.38496 
-14.5108 -1.79732 7.18172 -14.9208 -1.9278 6.92013 -15.2982 -2.05006 6.61098 
-15.6397 -2.17521 6.26413 -15.9373 -2.31667 5.88416 -16.1783 -2.48926 5.4729 
-16.3355 -2.70488 5.04407 -16.3735 -2.97183 4.62018 -16.2904 -3.27859 4.22461 
-16.1107 -3.59973 3.87959 -15.8651 -3.92312 3.5827 -15.5881 -4.2472 3.31343 
-15.302 -4.57435 3.06146 -15.0189 -4.91019 2.82473 -14.748 -5.26581 2.59802 
-14.4972 -5.65659 2.37642 -14.2957 -6.09349 2.2147 -14.1898 -6.5804 2.21657 
-14.1879 -7.05987 2.41079 -14.2626 -7.42291 2.75419 -14.3873 -7.64971 3.19046 
-14.5385 -7.79513 3.65625 -14.7163 -7.8793 4.11815 -14.9404 -7.89044 4.5683 
-15.2161 -7.82091 4.987 -15.534 -7.66829 5.3447 -15.87 -7.44142 5.64404 
-16.1876 -7.15933 5.91775 -16.4589 -6.84006 6.19603 -16.6654 -6.50054 6.50499 
-16.7933 -6.16211 6.85716 -16.8341 -5.85045 7.25125 -16.7895 -5.58577 7.67895 
-16.6718 -5.38221 8.12537 -16.4921 -5.24987 8.57735 -16.2598 -5.19506 9.02363 
-15.981 -5.23238 9.44374 -15.6596 -5.38521 9.8066 -15.3168 -5.65532 10.0723 
-14.994 -6.01895 10.1933 -14.716 -6.44223 10.1691 -14.4872 -6.88225 10.053 
-14.302 -7.31934 9.88994 -14.144 -7.76121 9.71266 -14.0001 -8.21494 9.5515 
-13.8617 -8.68482 9.43483 -13.7233 -9.16719 9.38575 -13.5827 -9.64847 9.42039 
-13.4398 -10.1165 9.54021 -13.2971 -10.5621 9.72778 -13.1557 -10.9817 9.96571 
-13.015 -11.3797 10.2385 -12.8731 -11.7605 10.5339 -12.7267 -12.1273 10.8443 
-12.5717 -12.4827 11.1637 -12.4022 -12.8275 11.4873 -12.2117 -13.1611 11.8112 
-11.9923 -13.4804 12.1313 -11.7367 -13.7798 12.4444 -11.4393 -14.0489 12.7477 
-11.0992 -14.2772 13.0403 -10.7233 -14.4539 13.324 -10.3208 -14.573 13.6013 
-9.90352 -14.6371 13.8751 -9.48121 -14.6515 14.1474 -9.05845 -14.6257 14.4181 
-8.63786 -14.5685 14.6869 -8.21908 -14.4873 14.9523 -7.80115 -14.3882 15.2127 
-7.38244 -14.276 15.4665 -6.96151 -14.1545 15.7121 -6.53734 -14.0275 15.9493 
-6.10931 -13.8987 16.1783 -5.6774 -13.7723 16.4014 -5.24178 -13.6529 16.6211 
-4.80275 -13.5456 16.8402 -4.36078 -13.4554 17.0614 -3.91677 -13.3872 17.2863 
-3.4719 -13.3455 17.516 -3.02791 -13.3342 17.7512 -2.58727 -13.3574 17.9923 
-2.15443 -13.4201 18.2397 -1.73457 -13.5272 18.4942 -1.33413 -13.6837 18.7564 
-0.965186 -13.8972 19.0265 -0.65824 -14.1861 19.3039 -0.442172 -14.557 19.5828 
-0.325968 -14.9669 19.8399 -0.325214 -15.3866 20.057 -0.495546 -15.8787 20.2495 
-0.817924 -16.4279 20.4184 -1.00207 -16.6996 20.4935 
LINES 1 129
128 0 1 2 3 4 5 6 7 8 9 10 11 12 13 14 15 16 17 18 19 20 21 22 23 24 25 26 27 28 29 30 31 32 33 34 35 36 37 38 39 40 41 42 43 44 45 46 47 48 49 50 51 52 53 54 55 56 57 58 59 60 61 62 63 64 65 66 67 68 69 70 71 72 73 74 75 76 77 78 79 80 81 82 83 84 85 86 87 88 89 90 91 92 93 94 95 96 97 98 99 100 101 102 103 104 105 106 107 108 109 110 111 112 113 114 115 116 117 118 119 120 121 122 123 124 125 126 127 

CELL_DATA 1
FIELD FieldData 2
Length 1 1 double
55.257775501 
Tortuosity 1 1 double
1.0887500334 
POINT_DATA 128
SCALARS MaximumInscribedSphereRadius float
LOOKUP_TABLE default
0.93 1.03114 1.13227 1.13104 1.12156 1.04038 0.956132 0.941302 0.930838 
0.93 0.93 0.876834 0.817762 0.760187 0.702817 0.760245 0.836376 0.819659 
0.785225 0.7401 0.692623 0.758004 0.851598 0.822105 0.758325 0.899749 1.10361 
1.24137 1.3569 1.25014 1.0605 1.08052 1.18688 1.2957 1.40564 1.41648 
1.37929 1.25104 1.07541 1.25584 1.6367 1.88845 2.06187 2.06786 1.96731 
1.81441 1.62732 1.55022 1.5506 1.59514 1.67343 1.78583 1.9264 2.04294 
2.13799 2.14002 2.07097 1.98616 1.88868 1.86372 1.90072 1.97312 2.077 
2.06307 1.93755 1.82063 1.7124 1.63447 1.5888 1.60186 1.68074 1.81868 
2.02649 2.15231 2.17722 2.19173 2.19371 2.20317 2.22197 2.18291 2.06598 
1.93101 1.76976 1.71905 1.83966 1.8387 1.63656 1.47688 1.39325 1.3736 
1.47901 1.5848 1.69141 1.78004 1.82655 1.82885 1.71789 1.57085 1.32312 
1.1947 1.43086 1.65752 1.8519 2.01113 2.03661 2.01672 1.80114 1.64769 
1.80166 1.94263 2.00878 2.06077 2.01636 1.99632 2.17707 2.35155 2.46189 
2.56579 2.58411 2.59569 2.48487 2.36723 2.07279 1.78627 1.73361 1.69066 
1.77533 1.86 
TEXTURE_COORDINATES TCoords 2 float
0 0 0.00787402 0 0.015748 0 0.023622 0 0.0314961 
0 0.0393701 0 0.0472441 0 0.0551181 0 0.0629921 0 
0.0708661 0 0.0787402 0 0.0866142 0 0.0944882 0 0.102362 
0 0.110236 0 0.11811 0 0.125984 0 0.133858 0 
0.141732 0 0.149606 0 0.15748 0 0.165354 0 0.173228 
0 0.181102 0 0.188976 0 0.19685 0 0.204724 0 
0.212598 0 0.220472 0 0.228346 0 0.23622 0 0.244094 
0 0.251969 0 0.259843 0 0.267717 0 0.275591 0 
0.283465 0 0.291339 0 0.299213 0 0.307087 0 0.314961 
0 0.322835 0 0.330709 0 0.338583 0 0.346457 0 
0.354331 0 0.362205 0 0.370079 0 0.377953 0 0.385827 
0 0.393701 0 0.401575 0 0.409449 0 0.417323 0 
0.425197 0 0.433071 0 0.440945 0 0.448819 0 0.456693 
0 0.464567 0 0.472441 0 0.480315 0 0.488189 0 
0.496063 0 0.503937 0 0.511811 0 0.519685 0 0.527559 
0 0.535433 0 0.543307 0 0.551181 0 0.559055 0 
0.566929 0 0.574803 0 0.582677 0 0.590551 0 0.598425 
0 0.606299 0 0.614173 0 0.622047 0 0.629921 0 
0.637795 0 0.645669 0 0.653543 0 0.661417 0 0.669291 
0 0.677165 0 0.685039 0 0.692913 0 0.700787 0 
0.708661 0 0.716535 0 0.724409 0 0.732283 0 0.740157 
0 0.748031 0 0.755906 0 0.76378 0 0.771654 0 
0.779528 0 0.787402 0 0.795276 0 0.80315 0 0.811024 
0 0.818898 0 0.826772 0 0.834646 0 0.84252 0 
0.850394 0 0.858268 0 0.866142 0 0.874016 0 0.88189 
0 0.889764 0 0.897638 0 0.905512 0 0.913386 0 
0.92126 0 0.929134 0 0.937008 0 0.944882 0 0.952756 
0 0.96063 0 0.968504 0 0.976378 0 0.984252 0 
0.992126 0 1 0 
FIELD FieldData 7
Curvature 1 128 double
0 0.0060830560543 0.011163227517 0.015660883187 0.019538825619 0.022872639786 0.025770227017 0.028291424934 0.030478265762 
0.032398590251 0.034243467374 0.036374011735 0.039301134283 0.043626409788 0.049906648112 0.058545468616 0.069699835427 0.083156314135 
0.098274818092 0.1139181926 0.12848040754 0.14010414057 0.14705429087 0.14826575421 0.14383881978 0.13519658494 0.12490604224 
0.11627072607 0.11251094971 0.11558628883 0.12530524333 0.13976093012 0.15665819194 0.17416391847 0.19132096502 0.20826834809 
0.22600366219 0.24583764352 0.26827217096 0.29187643159 0.31287283645 0.32591464674 0.32648297088 0.31369381362 0.29143127982 
0.26736429997 0.25072297071 0.2505202517 0.27439576357 0.32819288925 0.41698248953 0.54409818513 0.70259596862 0.85903702431 
0.95081760314 0.92948533207 0.81203748543 0.65835419649 0.51453541243 0.39733054023 0.30716988661 0.24077601698 0.19704794967 
0.17830574853 0.18660876685 0.21923954216 0.27147497963 0.34026841881 0.42443496422 0.52087522916 0.61891990139 0.69525634763 
0.7187893846 0.67173911392 0.5678973053 0.44118316136 0.320601083 0.21960337214 0.14148759933 0.088646756818 0.070452450695 
0.084522209953 0.107494576 0.12663031469 0.13814877323 0.14178507873 0.1392712986 0.13366699788 0.12836707914 0.12619502431 
0.128668016 0.13561688021 0.14562346107 0.15671215801 0.16683021307 0.17414069539 0.17723463741 0.17533348106 0.16834907136 
0.15687757964 0.14191405086 0.12458534477 0.10593821639 0.08677706748 0.067675804341 0.049008843287 0.0312818859 0.016552601899 
0.016384322165 0.031157756547 0.049339942914 0.069109047957 0.090579354487 0.11431535757 0.14110407771 0.17184045709 0.20729532308 
0.24741238008 0.29020468711 0.33036002458 0.35865514524 0.36442077453 0.34104481019 0.29061718968 0.22224404937 0.14603968452 
0.068441610479 0 
Torsion 1 128 double
0 0 0.14266270063 0.18741658358 0.22335913187 0.2451547164 0.25120389926 0.2444506888 0.23044268816 
0.21465440054 0.19978673155 0.18552079264 0.168940933 0.14780210951 0.12319762692 0.098201421119 0.076511862707 0.059307296518 
0.045792815993 0.034229851663 0.022309521395 0.0075351406075 -0.012850825913 -0.042581081871 -0.086519473927 -0.14877945198 -0.22864356841 
-0.3087870552 -0.34760307214 -0.31011445146 -0.21166827945 -0.095725658407 0.010907086481 0.10219960633 0.17998994366 0.2444020382 
0.29211025388 0.31835705333 0.3219360037 0.30864235168 0.28937885629 0.2757151898 0.27724870417 0.30201026192 0.35617801783 
0.43928473637 0.53073867276 0.57981867537 0.5433544521 0.44058910393 0.32363479331 0.22404786333 0.1485663552 0.093197547781 
0.050271887441 0.010976515902 -0.033247873338 -0.089359897799 -0.16239063667 -0.25906425724 -0.39210262575 -0.57558616974 -0.79459470224 
-0.93622004437 -0.87068443427 -0.68336904401 -0.51393319615 -0.39770609734 -0.32082834222 -0.26719971514 -0.22721659406 -0.19704378929 
-0.17700114314 -0.16885250928 -0.17516778287 -0.20162292515 -0.26170757416 -0.39165515615 -0.68877755848 -1.3323559223 -1.6587235655 
-0.93627811488 -0.48892081575 -0.31397781445 -0.25165563213 -0.2427265291 -0.26504501047 -0.30385371937 -0.33906282678 -0.34649529078 
-0.31210645449 -0.24567863979 -0.1704712683 -0.10335440993 -0.051209440636 -0.013932403154 0.010458722251 0.023975930255 0.028701187094 
0.025801554689 0.016242607606 -3.6725016563e-05 -0.023927104251 -0.058557497619 -0.11492371852 -0.22775360189 -0.54642228187 -1.8943312015 
-1.9512417256 -0.58291674981 -0.27064900289 -0.17035293928 -0.12711559753 -0.10470437131 -0.090754887633 -0.080788097434 -0.072407651425 
-0.064335759865 -0.056121880225 -0.047843234759 -0.039820719917 -0.032445634944 -0.025720492959 -0.01980115834 -0.014640147216 -0.0095236423906 
0 0 
Abscissas 1 128 double
0 0.50224696388 1.0044939278 1.5067407069 2.0089874711 2.511234468 3.0134814749 3.515728761 4.0179760647 
4.5202198586 5.0224633471 5.5247113889 6.0269599365 6.5292097688 7.0314597763 7.5337048036 8.0359490195 8.5381932024 
9.0404373789 9.5426867025 10.044937159 10.547182676 11.049426959 11.55167562 12.053925501 12.55616042 13.058390787 
13.560636582 14.062887564 14.565134885 15.06738084 15.569624045 16.071866119 16.574125772 17.076393355 17.57865753 
18.080920054 18.583151341 19.085366378 19.587615753 20.089884458 20.59213678 21.094379165 21.596625352 22.098873959 
22.601119679 23.103363514 23.605614398 24.107870249 24.610119263 25.112363055 25.614613211 26.116868621 26.619119401 
27.121366041 27.623616942 28.1258711 28.628118282 29.130359862 29.632604215 30.13485094 30.637094604 31.139335547 
31.641576368 32.143817075 32.646062388 33.148312366 33.650559462 34.152803485 34.655048781 35.157295503 35.659536455 
36.16177058 36.664003932 37.16623633 37.668479884 38.170736894 38.672989086 39.175235277 39.677479898 40.179722405 
40.681970751 41.184227601 41.686472499 42.188698871 42.690937636 43.193196905 43.695449477 44.197690053 44.699940855 
45.202211647 45.704469098 46.206698023 46.708929067 47.211165078 47.713404146 48.215651045 48.717904049 49.220174089 
49.72243665 50.224676353 50.726917812 51.229165228 51.731416349 52.233681571 52.735940178 53.238170255 53.740404451 
54.242659023 54.744911482 55.247151783 55.749393603 56.251645768 56.753897371 57.25614435 57.758390994 58.260634185 
58.762878324 59.265135079 59.767390107 60.269613732 60.771839733 61.274127297 61.776413336 62.278654324 62.780895156 
63.283133928 63.7853727 
ParallelTransportNormals 3 128 double
0 -0.99027339001 0.13913523289 -0.024831218879 -0.9852981372 0.16483873824 -0.049662437758 -0.9803228844 0.19054224358 
-0.065533169313 -0.97593721792 0.20683404367 -0.080681249785 -0.97159910077 0.22236680255 -0.084934907005 -0.97028558407 0.22650047088 
-0.08872174993 -0.96910166824 0.23014570045 -0.079612866561 -0.97163349403 0.22227767235 -0.069693082742 -0.9743989706 0.21368567527 
-0.054597652495 -0.97767937365 0.20188812441 -0.039051741493 -0.98100459516 0.1898115668 -0.030312025317 -0.98252286242 0.18338515565 
-0.022328455298 -0.98384038293 0.17758645743 -0.021868013172 -0.98392349212 0.1772452002 -0.022433277953 -0.98383830108 0.17764801311 
-0.021737755031 -0.98394186584 0.17715711287 -0.020836820804 -0.98407618326 0.17652060619 -0.0073889185471 -0.98565680466 0.16751881822 
0.008453136069 -0.98751340285 0.15692080733 0.050781996367 -0.9883525322 0.13250527039 0.098938870696 -0.98896778319 0.10504939946 
0.18203142096 -0.97580582932 0.06902132252 0.27385775697 -0.95919962677 0.03085022677 0.37024437382 -0.92270939521 0.0027762056017 
0.46790127926 -0.88068036983 -0.022485225918 0.53002158378 -0.84508998249 -0.034912599183 0.58132848021 -0.81145880393 -0.043434705606 
0.5982883215 -0.7999200089 -0.046200107469 0.60370043418 -0.79580883316 -0.047030063583 0.58359769991 -0.81005006636 -0.044442750751 
0.55398254919 -0.83113342394 -0.040581415565 0.50795137034 -0.85847428777 -0.039852241517 0.45516114371 -0.88839158381 -0.040412686772 
0.41062503969 -0.90947954709 -0.048273557078 0.36981251627 -0.92658444229 -0.059427778165 0.35571164055 -0.93243261398 -0.063536332458 
0.35455555407 -0.9328256406 -0.06423047096 0.37567359165 -0.92464462396 -0.043191854281 0.40838050019 -0.91200266958 -0.010846032225 
0.45705392226 -0.87964178561 0.064104730406 0.51471533918 -0.83618056734 0.1630389999 0.54926040192 -0.75178869457 0.30958791195 
0.56978250832 -0.64256726707 0.48502105241 0.54674299308 -0.53654068084 0.6246193142 0.49598416583 -0.43254704926 0.74141497716 
0.45607609983 -0.36665334646 0.80879389715 0.42325468719 -0.32564278152 0.84389864581 0.401652979 -0.29879984616 0.86537731826 
0.38795361736 -0.28193556215 0.87725877029 0.36573693251 -0.24712793256 0.8956009401 0.33701465005 -0.19861503628 0.91887785631 
0.29086383237 -0.032242440916 0.92481320652 0.23032037265 0.23145976013 0.91642773463 0.22028780127 0.47611040384 0.81005589689 
0.25542619621 0.70372358725 0.61605663912 0.29265513821 0.82642571271 0.46663587367 0.33148120695 0.86897835979 0.35127198436 
0.37152924725 0.88886615092 0.25567033872 0.41255878454 0.89054935462 0.1759418799 0.4643293101 0.87554581563 0.099988210991 
0.52527929998 0.84628145115 0.027260553352 0.58968890845 0.80038945897 -0.04184377876 0.6571769215 0.7397020309 -0.10772403817 
0.71082333091 0.67583951041 -0.17316369581 0.7513617061 0.60897016926 -0.23818610243 0.77464400221 0.55416986809 -0.29850911183 
0.78044463491 0.51159638241 -0.35407128997 0.7798592325 0.48342982624 -0.39666184935 0.77247029224 0.47061208801 -0.42543273849 
0.76588684096 0.46335248391 -0.44566242258 0.7602060552 0.46232156331 -0.45632046593 0.75328904841 0.46373590078 -0.4662437591 
0.74490988449 0.46804240032 -0.47529801653 0.73501712834 0.47636939506 -0.48227631974 0.72326100678 0.48964597368 -0.48669894037 
0.71819573088 0.49436585607 -0.48966091104 0.7212006642 0.48876502085 -0.49086110882 0.72876000427 0.46966679762 -0.49717482324 
0.74199267987 0.43375514183 -0.50985834546 0.75851469101 0.38360212974 -0.52326250935 0.7794625538 0.31428715343 -0.5376363077 
0.80149678174 0.24088480225 -0.54319027909 0.825113164 0.16152970323 -0.53589928088 0.84580014497 0.093630432421 -0.5232691039 
0.86194680099 0.043486729196 -0.50236365014 0.87470674989 0.0046809615458 -0.48422336545 0.88186253786 -0.0153633327 -0.47065875025 
0.88622594303 -0.027669404348 -0.4624232618 0.88558692562 -0.026112813838 -0.4637346535 0.88137592528 -0.017765706413 -0.47147524643 
0.87018319495 0.0038540164343 -0.49178223402 0.85303509236 0.031456792956 -0.51870853197 0.82315243291 0.071853318346 -0.55978910616 
0.78645494115 0.11324669574 -0.60405184184 0.73378755133 0.15697609905 -0.65577166409 0.68095919554 0.19481124332 -0.70422070246 
0.62771849032 0.21754695832 -0.74429091506 0.58045193066 0.23535601138 -0.77913568619 0.54985508408 0.23941815448 -0.79939986013 
0.52298651324 0.24220892019 -0.81711190137 0.50751192403 0.24111423007 -0.82702437114 0.49250113755 0.2396601657 -0.83660026283 
0.47906316206 0.2369874199 -0.84503477765 0.46503475377 0.23395941469 -0.85373474462 0.44875969155 0.22957961312 -0.86344478265 
0.432703025 0.22518521263 -0.8728975233 0.41758823795 0.22072785113 -0.88124061216 0.40402649677 0.21674281075 -0.88869043275 
0.39814926354 0.21509482651 -0.89172034068 0.39410920754 0.21390709777 -0.89381557733 0.40063996191 0.21536760224 -0.89053287187 
0.40844749461 0.21690594262 -0.88658791875 0.42495209339 0.21897448014 -0.87813191499 0.44237316563 0.22078727139 -0.86913313262 
0.46734293481 0.22049356291 -0.8556636576 0.49340102985 0.21956870365 -0.84143630864 0.53061794779 0.21217252904 -0.81943832667 
0.56927899518 0.20326622218 -0.79611930346 0.62715518554 0.17426655914 -0.75522291123 0.68569839726 0.14217936771 -0.71254334107 
0.75636638305 0.053968660476 -0.63745007235 0.82501941349 -0.036421061907 -0.56206581561 0.8414374925 -0.18329876063 -0.47913809363 
0.85582016924 -0.32931031239 -0.39742370755 0.81006470502 -0.44973062376 -0.35155863091 0.76754661707 -0.56163073179 -0.30893868604 
0.76754661707 -0.56163073179 -0.30893868604 0.76754661707 -0.56163073179 -0.30893868604 
FrenetTangent 3 128 double
-0.70051744198 0.16343354492 0.69466883468 -0.70051744198 0.16343354492 0.69466883468 -0.70300764659 0.16533058116 0.69169794547 
-0.70703034153 0.1678753482 0.68696867733 -0.71254161133 0.17045428685 0.68060986492 -0.71944462814 0.17241704443 0.67280888061 
-0.72757557345 0.17318578864 0.66380755308 -0.73670348465 0.17233168809 0.65388818997 -0.74655288392 0.16960425599 0.64334530997 
-0.75684598372 0.16490820917 0.63244718315 -0.76735325966 0.15823514692 0.62139408846 -0.77794222971 0.14956881601 0.61027457469 
-0.78860623975 0.13878499256 0.59903165565 -0.79946525584 0.12557254825 0.58744092455 -0.81072852317 0.10939455993 0.57511050415 
-0.82261853266 0.08950347723 0.56150501093 -0.83527209144 0.065018121147 0.54597909958 -0.84862396189 0.035056869956 0.52783367378 
-0.86230499585 -0.0010742234135 0.50638813194 -0.87559377192 -0.043655577061 0.48107144704 -0.8874624572 -0.092322626546 0.45153839227 
-0.8967581779 -0.1458953944 0.41777901367 -0.90250416814 -0.20235701875 0.380181356 -0.90423308534 -0.2590487187 0.33949416595 
-0.90221328441 -0.31307535472 0.29663953159 -0.8974392329 -0.36178805792 0.25241280554 -0.89135625369 -0.40317880357 0.20719768665 
-0.88543629972 -0.43606404402 0.16078155568 -0.88074993037 -0.46006197697 0.11235006672 -0.87764130543 -0.47546374942 0.060662690331 
-0.87556050408 -0.48308904552 0.0043333340073 -0.87304883328 -0.48419263698 -0.057820627776 -0.86786581901 -0.48043880872 -0.12644157253 
-0.85724773971 -0.47388963038 -0.20138254886 -0.8382536414 -0.46694377153 -0.28159251927 -0.8080994543 -0.46218891762 -0.36518033407 
-0.76440152678 -0.46213085078 -0.44958356577 -0.7053066165 -0.46884920597 -0.53171702886 -0.62961423846 -0.48363731634 -0.60801386248 
-0.53710944092 -0.50668162069 -0.6743791098 -0.42919397681 -0.53689064329 -0.7263201549 -0.30961648467 -0.57203806958 -0.75954596923 
-0.18469806154 -0.60936471538 -0.77107799198 -0.062437595502 -0.64653263695 -0.76032696652 0.049327620055 -0.68247116986 -0.72924610949 
0.14469202835 -0.71760478091 -0.68125442776 0.22037276259 -0.75340042143 -0.61953502766 0.27516607712 -0.79156756589 -0.54562296381 
0.30879206604 -0.833208009 -0.4587067404 0.32069750133 -0.87791685762 -0.35554901735 0.30912290969 -0.92255222027 -0.23095546666 
0.27074247685 -0.95938754384 -0.079208913341 0.20160902697 -0.97410157133 0.10237152426 0.10071878912 -0.94639990016 0.30689241519 
-0.024094837949 -0.85857448275 0.51212234511 -0.1540291574 -0.71086019112 0.68626001439 -0.26772069743 -0.52629037462 0.80705890104 
-0.35257929404 -0.33527164723 0.8736594096 -0.4066066294 -0.15905668616 0.89965105431 -0.43322276755 -0.0068630761358 0.90126074577 
-0.43679719116 0.11945192823 0.89159376996 -0.42085443765 0.22095458896 0.87980714474 -0.38779852962 0.29924397463 0.8718172653 
-0.33908944893 0.35541622089 0.87103252267 -0.27551933063 0.38963555881 0.87879077701 -0.19752957132 0.40097339089 0.8945403335 
-0.10553805073 0.38741532548 0.91584446575 -0.00041627413475 0.34603745137 0.93822060783 0.11583572662 0.27349492348 0.95487308647 
0.239106195 0.1671362939 0.95650075106 0.36178361844 0.027275163262 0.93186301509 0.47191621415 -0.13932872932 0.87056452489 
0.55519295133 -0.3169437901 0.76896516222 0.60112079025 -0.48393638126 0.63597120565 0.60929323347 -0.62224717437 0.49149792434 
0.58896660903 -0.72510229117 0.35685431313 0.55275038834 -0.79612632115 0.24627198168 0.51112860503 -0.84341425419 0.1655292873 
0.47075050075 -0.87475588338 0.11487432496 0.43507658373 -0.89567979242 0.09201128054 0.405535394 -0.9092603424 0.09373726019 
0.38242483947 -0.91662090398 0.11643607926 0.36551915828 -0.91763077101 0.15604330496 0.35443925893 -0.91166548709 0.20793953779 
0.34887446805 -0.8983054452 0.26708413033 0.34871054202 -0.87777551737 0.32849824807 0.3540590736 -0.85099649137 0.38787516559 
0.36520639478 -0.81927033154 0.44206381109 0.38249661595 -0.78381293563 0.4892173553 0.40617335969 -0.74538310132 0.52860877229 
0.43624764191 -0.70411251904 0.56027989029 0.47236165227 -0.65955804693 0.58468594321 0.51366160862 -0.61092617006 0.60242922121 
0.55874892883 -0.5573846314 0.61410260316 0.60571233116 -0.49840623355 0.62024495019 0.65229534985 -0.43407559948 0.62136072494 
0.69617775696 -0.36526773575 0.61799353713 0.73533539085 -0.29363666338 0.610785865 0.76836717731 -0.22141592739 0.60048885745 
0.79467697005 -0.15107050207 0.587933854 0.81446924163 -0.084934423171 0.57395644277 0.82856944256 -0.024945273335 0.55933032476 
0.83817074533 0.027479873227 0.54471520838 0.84457351177 0.071438910922 0.53065249007 0.84898152959 0.10645214177 0.51758893336 
0.85238000626 0.13233068872 0.50590207921 0.85547252043 0.14905936851 0.49593151892 0.85866340454 0.15669529238 0.48799973673 
0.86206463002 0.1552950711 0.4824189202 0.86551477723 0.1448756581 0.47947389302 0.8685910932 0.12538064027 0.47940505615 
0.8706028848 0.096663102874 0.48239699576 0.87057233476 0.05848135168 0.4885527008 0.86719534651 0.010502305597 0.49785734158 
0.85877190896 -0.047667206734 0.51013590913 0.84312908445 -0.1163938597 0.52496268094 0.8175505045 -0.19582954022 0.54153666891 
0.77881246514 -0.2855248586 0.55850398322 0.72352990517 -0.38378422098 0.57377186063 0.64907883188 -0.48687672352 0.58450639526 
0.55525319302 -0.58856866333 0.58760600761 0.44612466333 -0.68086148233 0.58086179651 0.33062630191 -0.75639841049 0.56440029509 
0.22058134974 -0.81139356089 0.54128029477 0.12706802112 -0.84678318545 0.51653843502 0.057756845104 -0.86676967999 0.49535287291 
0.016587960035 -0.87621153503 0.48164113764 0.016587960035 -0.87621153503 0.48164113764 
FrenetNormal 3 128 double
-0.56376698875 0.47008265131 -0.67910903641 -0.56376698875 0.47008265131 -0.67910903641 -0.58322696244 0.42254379156 -0.69376008425 
-0.60960261276 0.34771375497 -0.71237616406 -0.63735790333 0.24833622347 -0.72945460666 -0.66034346373 0.13045419047 -0.73954595131 
-0.67356873335 0.0032314421022 -0.73911752735 -0.67474766653 -0.12365140974 -0.72761659916 -0.66433266993 -0.24284767243 -0.70688550109 
-0.64429407588 -0.35089152252 -0.6795294572 -0.61677331266 -0.4471951696 -0.64777091712 -0.58350708506 -0.53225165718 -0.61337399285 
-0.54592465792 -0.606325433 -0.57821772471 -0.50562899594 -0.6686599576 -0.54519095697 -0.46406118002 -0.71897105801 -0.51742423498 
-0.42197570686 -0.75798936944 -0.49738176346 -0.37910745148 -0.78731422571 -0.48622407409 -0.33412937614 -0.80908881513 -0.48345925292 
-0.28570076867 -0.82460972845 -0.48825594366 -0.23282764116 -0.83444618588 -0.49949059288 -0.17550757189 -0.83821317514 -0.51632912491 
-0.11495366158 -0.83487671282 -0.53829966569 -0.053754789967 -0.82291508563 -0.56561575685 0.0042600198887 -0.80042755279 -0.59941436833 
0.054070961052 -0.76447661737 -0.64237981963 0.08985974271 -0.71011410526 -0.69832885101 0.10591613406 -0.62967094588 -0.76960786929 
0.098630024794 -0.51436730702 -0.8518793293 0.072306853431 -0.36508815254 -0.92816074029 0.043207255892 -0.20452241043 -0.97790782626 
0.031907863991 -0.066775921259 -0.9972576721 0.050391089822 0.028356497484 -0.99832692397 0.10038039699 0.079681598063 -0.99175330543 
0.17842644704 0.093479745412 -0.97950270045 0.27920068397 0.07603555975 -0.95721761984 0.39592948661 0.032829344616 -0.91769389001 
0.51976485007 -0.029101045826 -0.85381358021 0.64052781248 -0.10009092251 -0.76138421882 0.74862512815 -0.16843545853 -0.64124091714 
0.83737035875 -0.22397621772 -0.49864369663 0.90318615426 -0.26123886404 -0.34060097866 0.94399943255 -0.28071455211 -0.17339092126 
0.95769028531 -0.28779414976 -0.0019608121512 0.94135659008 -0.29124987867 0.17035632797 0.8901342956 -0.30113018576 0.34202565258 
0.79542574143 -0.3251524324 0.51144284682 0.64636305442 -0.36288733601 0.67121351539 0.44312748091 -0.39922556344 0.80265620608 
0.21445985823 -0.40886232529 0.88703921456 0.0030568326797 -0.37441448359 0.9272564102 -0.16855435503 -0.29215234325 0.94140131598 
-0.30129137671 -0.16259792515 0.93956661342 -0.40157405101 0.013123867612 0.91573251862 -0.46945218696 0.22675634787 0.85334412921 
-0.49815221695 0.45445369765 0.73845528331 -0.48242360437 0.66024083103 0.57562966479 -0.42668180359 0.81578215905 0.39043835296 
-0.34153293999 0.91531650387 0.21342668214 -0.23436517154 0.96993555066 0.065559087315 -0.10477413767 0.9935747419 -0.042797340246 
0.05629985645 0.99283133939 -0.10543366486 0.26313908771 0.95791548282 -0.11469851045 0.51963846625 0.85218003655 -0.061360000796 
0.77778203527 0.6267714004 0.04703952857 0.93895536585 0.30501789295 0.1591442928 0.97564237609 -0.0084056601139 0.21920606484 
0.94160667069 -0.25720445844 0.21730794802 0.87925956707 -0.44678803222 0.16517586983 0.80191453011 -0.59301477524 0.072571087481 
0.70864165403 -0.70348205289 -0.054221835489 0.59423872456 -0.77693690743 -0.20796485305 0.45508529792 -0.80722267556 -0.37588418919 
0.29424713906 -0.78990603422 -0.53802144777 0.1230548887 -0.73025957052 -0.67199587352 -0.043684337513 -0.6452380791 -0.76273160413 
-0.19699121407 -0.5570551548 -0.80677383206 -0.33880800465 -0.48468586161 -0.80640483105 -0.483139307 -0.44121490626 -0.7562445481 
-0.65547374493 -0.4339160214 -0.61811896596 -0.85806862752 -0.44341713758 -0.25903565886 -0.84471970447 -0.3336041876 0.41851746307 
-0.52427991849 -0.11149710731 0.84421499757 -0.2846737487 0.049403790776 0.95735057438 -0.14283853468 0.16697972939 0.97555877475 
-0.045323867975 0.2684839848 0.96221728154 0.038317371881 0.36355800943 0.93078319322 0.12535083628 0.45418029823 0.88204729156 
0.22512435864 0.53849427317 0.81199934785 0.33756968964 0.6114269616 0.71568413093 0.45060456902 0.66662969982 0.59376793926 
0.54553179517 0.7021294266 0.45761264052 0.60789071152 0.7241261042 0.32574571073 0.63526684502 0.74274922889 0.21156469129 
0.63285116553 0.76512788235 0.11865380712 0.60729644851 0.79323654214 0.044348752439 0.56450221918 0.82527494273 -0.016078352968 
0.50910690766 0.85814556637 -0.06630492812 0.44567300681 0.88848438286 -0.10941239612 0.37849209826 0.91379816927 -0.14736565879 
0.31181279865 0.93258253291 -0.18183123468 0.24959984149 0.94430355614 -0.21445445437 0.19530130858 0.94913514394 -0.2469815325 
0.15224816343 0.94724078018 -0.28205567021 0.12343365865 0.93838926447 -0.32278432465 0.11328698133 0.92005716107 -0.37504783724 
0.13059917573 0.88292139636 -0.45099186595 0.20077540159 0.7872979664 -0.58296753788 0.40391475208 0.37924031021 -0.83248402997 
0.42992551144 -0.72810707267 -0.5338765263 0.21902642298 -0.97035450229 -0.10217419403 0.11134346213 -0.99210345272 0.057735366494 
0.035545843508 -0.99030475644 0.13428694046 -0.03283143499 -0.98379469189 0.17626712989 -0.10222247327 -0.97473133568 0.19861870306 
-0.17623413349 -0.9623908229 0.20674968971 -0.25634544594 -0.9452126189 0.20213885679 -0.34321306276 -0.92082676722 0.18515630781 
-0.43621904911 -0.88636348935 0.15515381379 -0.53337328918 -0.8384651261 0.11175494042 -0.6306190363 -0.77410718004 0.055477066178 
-0.72180384349 -0.69200898554 -0.011080408839 -0.79966064563 -0.59470034956 -0.082911676281 -0.8584728735 -0.48947630052 -0.15309237962 
-0.8965499839 -0.38721562741 -0.21508645765 -0.91709559311 -0.29868820718 -0.26404739725 -0.92574152912 -0.23224245167 -0.2984393823 
-0.92822922885 -0.19254088079 -0.31830568317 -0.92822922885 -0.19254088079 -0.31830568317 
FrenetBinormal 3 128 double
-0.4375409648 -0.86735908212 -0.23716265894 -0.4375409648 -0.86735908212 -0.23716265894 -0.40697243041 -0.89113553579 -0.20062626384 
-0.35845885493 -0.92244946316 -0.14350692405 -0.29335874828 -0.95355883731 -0.068309505947 -0.215281065 -0.97634730858 0.019999901771 
-0.13014970754 -0.98488387153 0.11430141394 -0.044537200316 -0.97724721445 0.20737482885 0.036344121609 -0.9551227169 0.29397227842 
0.10986036914 -0.92178111391 0.37182022178 0.17538430853 -0.88032841517 0.44075188684 0.23307803183 -0.83326906981 0.5013355048 
0.28296018537 -0.78301225734 0.55391816937 0.32433720595 -0.73288839275 0.59806352557 0.35688441116 -0.68637704507 0.63365611263 
0.38109743183 -0.64609693032 0.66130439593 0.39824373629 -0.61311414428 0.68227045414 0.41011575354 -0.58663984275 0.6983256859 
0.41809707594 -0.56570101802 0.71075818202 0.42323378419 -0.54935758251 0.72047165833 0.42615429046 -0.53747112076 0.72767940405 
0.42732941164 -0.53074985473 0.73191130996 0.42731329144 -0.53090714707 0.73180663576 0.42701800852 -0.54056405177 0.72487662835 
0.42788727558 -0.56352402235 0.70664924512 0.43188893236 -0.6040259586 0.66979443969 0.44075594329 -0.66404920923 0.60396427558 