# vtk DataFile Version 4.2
vtk output
ASCII
DATASET POLYDATA
POINTS 128 float
0 0 0 -0.33214 -0.0260343 -0.0515021 -0.981406 -0.101944 -0.142276 
-1.51775 -0.224446 -0.193579 -1.95212 -0.390296 -0.208637 -2.39932 -0.596911 -0.209771 
-2.84832 -0.844449 -0.195009 -3.26281 -1.13246 -0.158127 -3.64349 -1.45419 -0.103005 
-4.00025 -1.80181 -0.0361761 -4.33432 -2.17131 0.0374863 -4.6449 -2.5599 0.113035 
-4.93468 -2.96509 0.182513 -5.20706 -3.3846 0.236316 -5.46309 -3.81714 0.261177 
-5.70236 -4.26073 0.242367 -5.92047 -4.70784 0.163917 -6.11174 -5.14878 0.0121344 
-6.27167 -5.57274 -0.210161 -6.39699 -5.97002 -0.493142 -6.48959 -6.34067 -0.821784 
-6.55324 -6.6887 -1.17993 -6.5908 -7.01907 -1.55746 -6.60455 -7.33696 -1.94706 
-6.59562 -7.64631 -2.3436 -6.56452 -7.95042 -2.74306 -6.51107 -8.2517 -3.14226 
-6.43474 -8.55215 -3.53842 -6.33459 -8.85338 -3.92861 -6.2095 -9.15676 -4.30985 
-6.05857 -9.46301 -4.67934 -5.88087 -9.77265 -5.03405 -5.67385 -10.0874 -5.36766 
-5.43477 -10.4089 -5.67275 -5.16692 -10.7344 -5.94784 -4.8748 -11.0599 -6.19119 
-4.54205 -11.3956 -6.3661 -4.14892 -11.7531 -6.41519 -3.77318 -12.0684 -6.27318 
-3.54415 -12.2395 -5.88613 -3.49096 -12.2592 -5.35637 -3.58307 -12.1742 -4.85567 
-3.76463 -12.0343 -4.40981 -3.97261 -11.8871 -3.97659 -4.18935 -11.747 -3.54483 
-4.42149 -11.6108 -3.12 -4.66625 -11.4831 -2.69964 -4.91564 -11.3727 -2.27697 
-5.16509 -11.287 -1.84865 -5.41199 -11.232 -1.41354 -5.65203 -11.2158 -0.971486 
-5.87971 -11.2475 -0.52325 -6.08897 -11.3347 -0.0733111 -6.27352 -11.4832 0.37133 
-6.42925 -11.6927 0.802667 -6.55375 -11.9582 1.2123 -6.64762 -12.2715 1.59553 
-6.71357 -12.6225 1.95048 -6.75458 -13.0025 2.27794 -6.77378 -13.4041 2.58067 
-6.77336 -13.8211 2.86206 -6.75479 -14.2489 3.12595 -6.7187 -14.6839 3.37599 
-6.66501 -15.1228 3.61571 -6.59314 -15.5628 3.84848 -6.5021 -16.0012 4.07752 
-6.39066 -16.4352 4.30602 -6.25745 -16.8617 4.53713 -6.10142 -17.2772 4.77399 
-5.92188 -17.6778 5.0197 -5.71917 -18.0596 5.27711 -5.49471 -18.4188 5.54875 
-5.25109 -18.7522 5.83632 -4.99209 -19.0579 6.14063 -4.72158 -19.3354 6.46157 
-4.44345 -19.5855 6.79802 -4.16085 -19.8099 7.14853 -3.87614 -20.0109 7.51126 
-3.59085 -20.1908 7.88441 -3.30561 -20.3517 8.26616 -3.02032 -20.4952 8.65468 
-2.7341 -20.6226 9.04812 -2.44565 -20.7346 9.44459 -2.15323 -20.8313 9.84217 
-1.85498 -20.9127 10.2389 -1.54891 -20.9783 10.6325 -1.2332 -21.0276 11.021 
-0.906293 -21.0598 11.4019 -0.566985 -21.0743 11.7729 -0.214615 -21.0707 12.1319 
0.150936 -21.0487 12.4768 0.529003 -21.0082 12.8062 0.918488 -20.9493 13.119 
1.31769 -20.8724 13.4153 1.72477 -20.7783 13.6953 2.13768 -20.6679 13.9605 
2.55462 -20.5425 14.2123 2.97412 -20.4039 14.4526 3.39506 -20.2544 14.6836 
3.8169 -20.0964 14.9072 4.23939 -19.9328 15.1254 4.66277 -19.7667 15.3399 
5.08744 -19.6014 15.5526 5.51403 -19.4408 15.765 5.94316 -19.2887 15.9786 
6.37541 -19.1494 16.1946 6.81114 -19.0273 16.4142 7.25017 -18.9274 16.6384 
7.69184 -18.8548 16.8682 8.13443 -18.8149 17.1042 8.57543 -18.8132 17.3469 
9.01067 -18.8548 17.5963 9.4351 -18.9441 17.8522 9.84208 -19.0829 18.1142 
10.225 -19.2717 18.3814 10.578 -19.5068 18.6529 10.8961 -19.7832 18.9284 
11.1763 -20.0927 19.21 11.417 -20.4271 19.4994 11.6201 -20.779 19.7961 
11.786 -21.1403 20.1028 11.9082 -21.5006 20.4352 11.9832 -21.8494 20.8004 
12.0238 -22.1774 21.1691 12.0324 -22.4747 21.5361 11.9603 -22.7273 22.0181 
11.7969 -22.913 22.6284 11.6998 -22.9862 22.9456 
LINES 1 129
128 0 1 2 3 4 5 6 7 8 9 10 11 12 13 14 15 16 17 18 19 20 21 22 23 24 25 26 27 28 29 30 31 32 33 34 35 36 37 38 39 40 41 42 43 44 45 46 47 48 49 50 51 52 53 54 55 56 57 58 59 60 61 62 63 64 65 66 67 68 69 70 71 72 73 74 75 76 77 78 79 80 81 82 83 84 85 86 87 88 89 90 91 92 93 94 95 96 97 98 99 100 101 102 103 104 105 106 107 108 109 110 111 112 113 114 115 116 117 118 119 120 121 122 123 124 125 126 127 

CELL_DATA 1
FIELD FieldData 2
Length 1 1 double
58.352138834 
Tortuosity 1 1 double
0.69030066571 
POINT_DATA 128
SCALARS MaximumInscribedSphereRadius float
LOOKUP_TABLE default
1.24 1.16162 1.08324 1.01131 0.939827 0.938663 0.938694 0.98841 1.04109 
1.11688 1.19434 1.21868 1.238 1.24 1.24 1.2028 1.1605 1.07205 
0.97625 1.04378 1.14078 1.19131 1.23232 1.20742 1.16734 1.0544 0.922714 
0.821666 0.729372 0.747097 0.799491 0.836339 0.867802 0.823364 0.750218 0.810214 
0.924229 1.20398 1.56443 1.70521 1.76027 1.78803 1.80771 1.90814 2.03966 
1.97985 1.84223 1.73239 1.6349 1.66117 1.74705 1.80699 1.85345 1.89422 
1.93181 2.00708 2.10492 2.16876 2.21073 2.22028 2.20743 2.19673 2.18763 
2.17556 2.16112 2.10939 2.02576 1.96971 1.93899 1.96349 2.04235 2.07152 
2.04828 1.99075 1.89445 1.79857 1.7032 1.64783 1.64451 1.68176 1.77573 
1.87724 1.99007 2.09109 2.173 2.22271 2.21622 2.20757 2.19484 2.18806 
2.19337 2.22042 2.29546 2.37586 2.46911 2.55845 2.63758 2.67928 2.61408 
2.53248 2.39948 2.30004 2.31694 2.33145 2.33678 2.31444 2.17315 2.05123 
2.02319 2.01643 2.12679 2.18704 1.93068 1.68606 1.52764 1.40824 1.62872 
1.84607 2.03041 2.20417 2.23351 2.24946 2.03638 1.82755 1.82639 1.83588 
2.00294 2.17 
TEXTURE_COORDINATES TCoords 2 float
0 0 0.00787402 0 0.015748 0 0.023622 0 0.0314961 
0 0.0393701 0 0.0472441 0 0.0551181 0 0.0629921 0 
0.0708661 0 0.0787402 0 0.0866142 0 0.0944882 0 0.102362 
0 0.110236 0 0.11811 0 0.125984 0 0.133858 0 
0.141732 0 0.149606 0 0.15748 0 0.165354 0 0.173228 
0 0.181102 0 0.188976 0 0.19685 0 0.204724 0 
0.212598 0 0.220472 0 0.228346 0 0.23622 0 0.244094 
0 0.251969 0 0.259843 0 0.267717 0 0.275591 0 
0.283465 0 0.291339 0 0.299213 0 0.307087 0 0.314961 
0 0.322835 0 0.330709 0 0.338583 0 0.346457 0 
0.354331 0 0.362205 0 0.370079 0 0.377953 0 0.385827 
0 0.393701 0 0.401575 0 0.409449 0 0.417323 0 
0.425197 0 0.433071 0 0.440945 0 0.448819 0 0.456693 
0 0.464567 0 0.472441 0 0.480315 0 0.488189 0 
0.496063 0 0.503937 0 0.511811 0 0.519685 0 0.527559 
0 0.535433 0 0.543307 0 0.551181 0 0.559055 0 
0.566929 0 0.574803 0 0.582677 0 0.590551 0 0.598425 
0 0.606299 0 0.614173 0 0.622047 0 0.629921 0 
0.637795 0 0.645669 0 0.653543 0 0.661417 0 0.669291 
0 0.677165 0 0.685039 0 0.692913 0 0.700787 0 
0.708661 0 0.716535 0 0.724409 0 0.732283 0 0.740157 
0 0.748031 0 0.755906 0 0.76378 0 0.771654 0 
0.779528 0 0.787402 0 0.795276 0 0.80315 0 0.811024 
0 0.818898 0 0.826772 0 0.834646 0 0.84252 0 
0.850394 0 0.858268 0 0.866142 0 0.874016 0 0.88189 
0 0.889764 0 0.897638 0 0.905512 0 0.913386 0 
0.92126 0 0.929134 0 0.937008 0 0.944882 0 0.952756 
0 0.96063 0 0.968504 0 0.976378 0 0.984252 0 
0.992126 0 1 0 
FIELD FieldData 7
Curvature 1 128 double
0 0.033283186601 0.061284833116 0.085860624451 0.10569704957 0.11988539617 0.12824633511 0.13153445026 0.13148997294 
0.13060767459 0.13162296436 0.13672830649 0.14672048531 0.16069609914 0.17645527274 0.19115679407 0.20193707554 0.20660877783 
0.20420506518 0.19520935054 0.18128887597 0.16471923717 0.14780856662 0.13256818518 0.12053215294 0.11285822376 0.11023118844 
0.11297516328 0.12125632374 0.13556632472 0.15728547465 0.18952728935 0.23840032707 0.31537817643 0.44136726219 0.65070950499 
0.97803438066 1.3723993484 1.5662489771 1.3408089148 0.9220336092 0.57796539308 0.35666028775 0.22140914584 0.13802576147 
0.089271655591 0.072115803992 0.082331329749 0.10531666118 0.13143082924 0.15667195141 0.17866790195 0.19549259037 0.20566264059 
0.20846614974 0.20418000291 0.193957148 0.17949866838 0.16266899275 0.14514845708 0.1282930897 0.1132046184 0.10075923647 
0.091677721692 0.086424602876 0.084979718062 0.086754079868 0.090745596266 0.095847876425 0.10100830419 0.10547982294 0.10865112881 
0.11021537019 0.11008248498 0.10828386697 0.10513942852 0.10092029138 0.096054096738 0.091029573043 0.08624904186 0.082157244115 
0.079093313764 0.07738218848 0.077066603417 0.078074486062 0.080077553113 0.082636754004 0.085256477244 0.087422360215 0.088679672761 
0.088721705866 0.087289585405 0.084241970359 0.079606702921 0.073390136886 0.065786368937 0.056933751694 0.04716819085 0.036804688439 
0.02678899918 0.019679154994 0.020875212137 0.030517028083 0.044035700658 0.059350340751 0.075622577351 0.092483532674 0.10951360109 
0.12620171337 0.14197390957 0.15610226152 0.16784717702 0.1766210327 0.18204433334 0.18430788763 0.18392346507 0.18186318122 
0.17906053538 0.17609528332 0.17269787076 0.16775583011 0.15941251711 0.14583865983 0.12589295235 0.099564747368 0.067889072506 
0.032694929208 0 
Torsion 1 128 double
0 0 -0.033336629716 -0.05071218991 -0.074089617079 -0.10563177309 -0.1477397978 -0.20194988565 -0.26618250023 
-0.33020106152 -0.37361543395 -0.37592380584 -0.33538835687 -0.27037178476 -0.20117102595 -0.13875788482 -0.085463976089 -0.039340260023 
0.0028593871407 0.044586930768 0.089068245813 0.13888496902 0.19534985023 0.25706053183 0.31724605274 0.36380072909 0.38460082045 
0.37669710573 0.34990241999 0.3173779911 0.28882654389 0.2681514522 0.25518906303 0.24791155803 0.24291432335 0.23456717594 
0.21705593037 0.19339894888 0.18018601496 0.18886288717 0.2141789403 0.25095930865 0.31270591306 0.43648083978 0.69807451318 
1.1760287055 1.3975719907 0.88574478039 0.46352214689 0.25837876957 0.15774958608 0.10467109595 0.075586525181 0.060402012842 
0.054753094236 0.056774630558 0.065960785108 0.082860221512 0.10852947153 0.14447116928 0.19189499969 0.2502914064 0.31467316145 
0.37197521348 0.4039398362 0.39855771443 0.36144747887 0.30998602626 0.25862101638 0.21454908255 0.17859035282 0.14933028181 
0.12445880624 0.10155912557 0.078625374504 0.053863213924 0.026024351286 -0.0058488012799 -0.041874130921 -0.080498607959 -0.11851113449 
-0.15110334924 -0.17235129144 -0.17867755847 -0.17044687005 -0.15157935343 -0.12705953706 -0.10176450614 -0.078604187858 -0.058404176011 
-0.042345098962 -0.030926039459 -0.02362910257 -0.022456709471 -0.028619718754 -0.045142741634 -0.079620511682 -0.14874383308 -0.29792968085 
-0.64703800418 -1.3218206296 -1.2470926235 -0.60378006662 -0.29742613504 -0.17052277249 -0.11381098182 -0.08772439461 -0.077110768093 
-0.075801065519 -0.080992104287 -0.091072018174 -0.10609205246 -0.12612855305 -0.15091033341 -0.17954061991 -0.21001243331 -0.23842330006 
-0.25831800131 -0.26397254285 -0.25275396781 -0.22689210174 -0.1923390068 -0.15467163621 -0.11875991442 -0.085779695269 -0.057036220416 
0 0 
Abscissas 1 128 double
0 0.50286202138 1.0057240428 1.5085845677 2.0114449888 2.5143054747 3.0171659617 3.5200251186 4.0228841962 
4.5257463734 5.0286087755 5.5314699231 6.0343309524 6.5371930887 7.0400553527 7.5429160179 8.0457764635 8.5486378182 
9.0514993177 9.5543577769 10.057215687 10.560077948 11.062941098 11.565801882 12.068662122 12.571523888 13.074386047 
13.577247477 14.080108699 14.582966824 15.085823974 15.588690051 16.091559219 16.594410471 17.097254945 17.600108087 
18.102964745 18.605823606 19.108683538 19.611547233 20.114412396 20.617278718 21.120145384 21.623002873 22.12585683 
22.628716806 23.131579231 23.634442369 24.137305824 24.640166111 25.143024874 25.645887715 26.148752679 26.651616862 
27.154480608 27.657328004 28.160165607 28.663014392 29.165870366 29.668727948 30.17158664 30.674462872 31.177352124 
31.680221438 32.183074864 32.685924867 33.188771943 33.691635117 34.194513071 34.697380805 35.200238478 35.703097262 
36.205957217 36.708814412 37.211668486 37.714523683 38.217380242 38.720239407 39.223101965 39.72596584 40.228831557 
40.731693237 41.234548848 41.737415028 42.24029832 42.743171937 43.246028674 43.748884653 44.251739207 44.754599317 
45.257470745 45.760337318 46.263193175 46.766049982 47.26890907 47.771768608 48.27462932 48.777493125 49.280365766 
49.783230344 50.286069629 50.788916972 51.291792241 51.794662015 52.297510648 52.800362621 53.303228957 53.806094561 
54.308956612 54.811817548 55.314672345 55.817528796 56.320395699 56.823258553 57.326091668 57.828931257 58.331827238 
58.834717926 59.337552601 59.840388656 60.343243547 60.846099436 61.348972421 61.851845134 62.354704505 62.857563006 
63.360408633 63.86325426 
ParallelTransportNormals 3 128 double
-0.14259131561 0 0.98978165103 -0.10740643981 0.0071627824117 0.99349127481 -0.072221564016 0.014325564823 0.99720089858 
-0.038546085584 0.027459883683 0.99825520781 -0.0049754035543 0.041008802132 0.99912516042 0.024957036287 0.059884476791 0.99723961738 
0.054827595208 0.078850751404 0.99530720759 0.071822420533 0.093739816896 0.99275685032 0.088049986989 0.10838592343 0.99016966987 
0.089726727145 0.11006098334 0.98986602087 0.090347644252 0.11079485065 0.98972806729 0.072502328922 0.08448885361 0.99315869202 
0.052915215208 0.055632363816 0.9969259173 0.011308961306 -0.018134640736 0.99564965857 -0.032839270439 -0.097086295206 0.99379115983 
-0.088425418118 -0.21748166802 0.96144919628 -0.14558272446 -0.3435699186 0.9249199 -0.18544168373 -0.45520927312 0.86047407709 
-0.22254800658 -0.5645494162 0.79158597729 -0.2387565359 -0.63163659868 0.73292132054 -0.25119367891 -0.69109846719 0.67610166974 
-0.25490537998 -0.72476544256 0.63861791417 -0.25683135159 -0.75315329273 0.60509139972 -0.25633035192 -0.769244804 0.58489007955 
-0.25527066993 -0.78250573079 0.56775618363 -0.25411444745 -0.78924314903 0.55897414986 -0.25293338301 -0.79430192651 0.55234123202 
-0.25292868754 -0.79476970737 0.55169403642 -0.25326005927 -0.79392592405 0.55275685273 -0.25621016536 -0.78856803757 0.55892873751 
-0.25998550829 -0.78178763024 0.56671063344 -0.26929049336 -0.76852428182 0.57990622428 -0.28051047625 -0.75301579389 0.59497665869 
-0.30364547881 -0.72627024096 0.61503498654 -0.3312870893 -0.69527450234 0.63697988115 -0.42458342052 -0.60663955039 0.65277626182 
-0.54451755904 -0.49461888845 0.66607803239 -0.71801531184 -0.3503546738 0.50012704106 -0.91759404917 -0.1903905552 0.24689499951 
-0.96322257762 -0.1570285102 0.0098613840997 -0.94877913805 -0.17306708487 -0.22085154267 -0.92870169614 -0.18873516898 -0.31384568257 
-0.90695601181 -0.2042935499 -0.36606093914 -0.89101565919 -0.21448286114 -0.39905170477 -0.87730966695 -0.22260572086 -0.42464333404 
-0.86893625482 -0.22692081563 -0.43966682196 -0.86273174528 -0.22968719081 -0.45039196486 -0.86008406803 -0.23070707771 -0.45500028162 
-0.85901614915 -0.23095126611 -0.45689182499 -0.86033638768 -0.23124138825 -0.45422649307 -0.86280668437 -0.23155363057 -0.44936671971 
-0.86594251442 -0.23339117002 -0.44225998199 -0.86942464134 -0.23602236707 -0.43398408167 -0.87210318514 -0.23979059312 -0.42646289614 
-0.87433228092 -0.24419476509 -0.4193638263 -0.87576576754 -0.24873638433 -0.41367217521 -0.8767228042 -0.25336031376 -0.40882335578 
-0.87731957838 -0.25907046813 -0.40390142106 -0.87768470313 -0.26547906705 -0.39893247307 -0.87755995321 -0.27501934284 -0.39254477244 
-0.8770967832 -0.28672307473 -0.38517695503 -0.87550836788 -0.3031704526 -0.37568059435 -0.87308468789 -0.32313901803 -0.36460422534 
-0.8685186337 -0.34874120413 -0.35082817313 -0.86224541096 -0.37883258727 -0.33490085609 -0.85249307275 -0.41453322577 -0.31557510586 
-0.83976427475 -0.45503270554 -0.29334192131 -0.82246796961 -0.49930919988 -0.26723009506 -0.80097796469 -0.54705359578 -0.23755705735 
-0.77551988452 -0.59441383733 -0.20473337274 -0.74615575632 -0.64139592949 -0.16880829076 -0.71580902795 -0.68361588934 -0.13225328609 
-0.68442557024 -0.720811382 -0.09503365773 -0.65508399237 -0.75201897105 -0.059850848106 -0.62805100755 -0.77645650815 -0.026970909331 
-0.60387808892 -0.79647511801 0.0029930268339 -0.58317271722 -0.8111362163 0.029421598684 -0.56431384656 -0.82344699852 0.053919430189 
-0.54785799448 -0.83269910213 0.075904614891 -0.53169385004 -0.84098066735 0.097703033452 -0.51593755465 -0.84790528085 0.11924032619 
-0.49918203577 -0.85441493644 0.14199858948 -0.48092410623 -0.86030067037 0.16659267747 -0.46078511674 -0.86574930232 0.19303891255 
-0.43760045462 -0.87049021119 0.22248400669 -0.41218044308 -0.87444913343 0.25346049058 -0.38285987595 -0.87704353417 0.28710916115 
-0.3515476049 -0.87850186162 0.32127920105 -0.31648304311 -0.87781987231 0.35643147999 -0.28025607228 -0.87589385507 0.39091863411 
-0.24166090059 -0.87143335305 0.42405071515 -0.20314023534 -0.8659705611 0.45562499172 -0.16478399235 -0.85829589637 0.48376147528 
-0.12781570306 -0.85017004713 0.50992542842 -0.094174653019 -0.84096260653 0.53136077965 -0.062892644424 -0.83198257155 0.55082899809 
-0.037772842727 -0.82359655772 0.56515873999 -0.015471041332 -0.81600228933 0.57772783566 -0.001220063647 -0.81066998061 0.585266892 
0.010066436443 -0.80644082996 0.59122709146 0.012052180713 -0.80567272888 0.59223378328 0.01102397939 -0.80601372101 0.59173243529 
-0.0004485505356 -0.81019809169 0.58600522544 -0.014988349166 -0.8151678724 0.57872975999 -0.041326469617 -0.82315875147 0.56549889264 
-0.070830953745 -0.83127472538 0.55057004812 -0.11395328021 -0.83992870506 0.52833857269 -0.16023197629 -0.84767255932 0.50420705012 
-0.22179713712 -0.85100862805 0.47087349897 -0.28586126126 -0.85213535812 0.43563754366 -0.36367594867 -0.84110518662 0.38993359608 
-0.4422215494 -0.82705414789 0.34288458282 -0.52538533996 -0.79391611489 0.2873369303 -0.60712596927 -0.75845692809 0.23151450349 
-0.67841182321 -0.70594616573 0.17367353987 -0.74740393221 -0.65280092709 0.11633110557 -0.79641636727 -0.59412908042 0.063331112858 
-0.84361326294 -0.53595417234 0.01093675204 -0.87159515198 -0.48303868099 -0.035047821685 -0.89857990241 -0.43063364979 -0.080926869306 
-0.91194747763 -0.38519959056 -0.12536482593 -0.92466292413 -0.34057848994 -0.16951080546 -0.92621734728 -0.30987097693 -0.20865966857 
-0.92760068558 -0.27941471441 -0.24781066068 -0.92059330508 -0.26128083035 -0.28706606748 -0.9140295282 -0.24429491544 -0.32383640294 
-0.9140295282 -0.24429491544 -0.32383640294 -0.9140295282 -0.24429491544 -0.32383640294 
FrenetTangent 3 128 double
-0.93642397891 -0.34845964141 -0.041061052442 -0.93642397891 -0.34845964141 -0.041061052442 -0.92889640664 -0.36880156083 -0.033717568958 
-0.91618361231 -0.40011000865 -0.02279406753 -0.89783051774 -0.44023582179 -0.0096323735554 -0.87364066502 -0.48655527718 0.0039938277654 
-0.8438831629 -0.53628849091 0.015995683653 -0.80933634016 -0.58684898451 0.024144520729 -0.77114290152 -0.63612000488 0.026267181622 
-0.73053432584 -0.68257074098 0.020415247294 -0.68853755701 -0.72518353982 0.0049865972933 -0.6457572952 -0.7632488197 -0.021183836616 
-0.60228728203 -0.79611647928 -0.058724622868 -0.55776547655 -0.82299633933 -0.10758577335 -0.51154669568 -0.8428986706 -0.16685865046 
-0.46295347104 -0.85476678647 -0.2346227278 -0.41156073459 -0.8577836059 -0.30793675844 -0.35741304527 -0.85176225131 -0.38308873948 
-0.30107569195 -0.83744115928 -0.45612030482 -0.24349268787 -0.81650974135 -0.52347220866 -0.18571258422 -0.79133018203 -0.58250096916 
-0.12861167377 -0.76448446315 -0.63168231175 -0.072724651832 -0.73834163229 -0.67049441388 -0.018205172369 -0.71478360092 -0.69910870081 
0.035105979264 -0.69512330821 -0.7180328381 0.087565478776 -0.68014822217 -0.72782599761 0.13961475228 -0.67023609353 -0.72889731778 
0.19168046331 -0.66548369289 -0.72138065851 0.24411154067 -0.66581504577 -0.70505310476 0.2971445189 -0.67107465893 -0.67923776178 
0.3508817389 -0.68107454211 -0.64266591119 0.40525743594 -0.69559985182 -0.59321771447 0.45992937679 -0.71432389962 -0.52745268489 
0.51393998559 -0.73649207158 -0.43982396446 0.5647846513 -0.76003684908 -0.32150005552 0.60607447447 -0.77929329846 -0.15929747761 
0.6226620938 -0.78002963612 0.062013576961 0.58578176421 -0.73402022022 0.34361903472 0.46727881488 -0.61247503462 0.63759300587 
0.28500805367 -0.43239995615 0.85545349802 0.099374263723 -0.25479303115 0.96187591039 -0.051439057647 -0.11843996292 0.99162795369 
-0.16365309563 -0.026752556285 0.98615514247 -0.24542200637 0.029039816904 0.96898128353 -0.30486199398 0.057417859298 0.95066416471 
-0.34764956179 0.06417838359 0.93542552737 -0.37734974964 0.052909002743 0.92455816684 -0.39606209276 0.025816437209 0.91786073576 
-0.40492348168 -0.015570517261 0.91421798986 -0.40447765195 -0.06985409067 0.91187621698 -0.39498134265 -0.13533530989 0.90866610636 
-0.37668324227 -0.20972205726 0.90228952875 -0.35007191425 -0.2900155604 0.89069671021 -0.31605363118 -0.37264622695 0.87249349095 
-0.27599285599 -0.45385181501 0.84725820943 -0.23158296822 -0.53018577078 0.81564230965 -0.18460260999 -0.59896640636 0.77920544174 
-0.13665326347 -0.65851209603 0.74005925774 -0.088957263395 -0.70812538293 0.70046059657 -0.042277821172 -0.74788509617 0.66248054218 
0.0030481768337 -0.77835353087 0.62781883501 0.047011587555 -0.8003110071 0.59773924294 0.089806731936 -0.81455601834 0.57309095604 
0.13170735763 -0.82178357773 0.55436894151 0.17296283101 -0.82253682809 0.54177211585 0.21371847442 -0.81720260994 0.53526097186 
0.25396081414 -0.80604795022 0.53459387092 0.29349561002 -0.78927806776 0.53935188759 0.33195803147 -0.76710168926 0.54896162314 
0.3688422033 -0.73980798571 0.56270736031 0.40357075971 -0.70781825581 0.57976198448 0.4355775707 -0.67171695087 0.59922326208 
0.46438894088 -0.63225420643 0.62015927796 0.4897090366 -0.59029543903 0.64166685603 0.51146403363 -0.54676766322 0.66290999749 
0.52982739876 -0.50256749834 0.68316091599 0.54520015572 -0.45848572939 0.70181737378 0.55815922145 -0.4151622418 0.7184000254 
0.56940487849 -0.37302540123 0.73255043129 0.57968772894 -0.33229879169 0.74400245292 0.58973625429 -0.29302673141 0.75255995446 
0.60019957679 -0.25510850281 0.75807659231 0.61160487131 -0.21833474492 0.76044028072 0.62431819603 -0.18244120042 0.75956698091 
0.63852221421 -0.14715976265 0.75540279733 0.65421456413 -0.11225396586 0.74793204988 0.67121344549 -0.077559308353 0.73719540441 
0.68917999641 -0.042999878969 0.72331317074 0.70765830118 -0.0086124449685 0.70650233868 0.72612186221 0.025441616841 0.6870951647 
0.74402877255 0.058901056558 0.66554628025 0.76088468308 0.091409472435 0.64241638165 0.77629042109 0.12252326486 0.61835364614 
0.78997576053 0.15176012519 0.59405989781 0.80182840787 0.17859590457 0.57024092032 0.81188868725 0.20249436612 0.54756989618 
0.8203304491 0.22292377141 0.52665258607 0.82743205414 0.2393672503 0.50799558588 0.83353371273 0.25131591394 0.49199782637 
0.83899003602 0.25826953601 0.47894944017 0.84411931152 0.25975414443 0.46903131279 0.84916221251 0.25529095345 0.46233112153 
0.85423115901 0.24441910595 0.45885556293 0.85926904872 0.22670941556 0.45854066647 0.86402065771 0.20176654369 0.46125759061 
0.86799824758 0.16928421716 0.46682105353 0.87046896142 0.12909427516 0.47499311082 0.87046309749 0.081228243671 0.48548529158 
0.86680933452 0.026029062519 0.49795990349 0.85821020374 -0.035762373408 0.51205107054 0.84335921867 -0.10292638264 0.52740059541 
0.82110782283 -0.17372554786 0.54369235538 0.79062927437 -0.24595540288 0.56072389847 0.75156274235 -0.31706944658 0.57846383669 
0.7040825276 -0.38441156641 0.59707247629 0.64887368346 -0.44546254278 0.6168679485 0.58702645847 -0.49805652975 0.63823164308 
0.5198968281 -0.54052865069 0.66146509047 0.44902690163 -0.57180775174 0.68659357458 0.37615215441 -0.59147050808 0.71321258738 
0.30326544157 -0.59983702153 0.74042259525 0.23270258768 -0.59808541665 0.7669050398 0.16712581522 -0.58832972583 0.79116186435 
0.10933519083 -0.57354888463 0.81184203697 0.061964367884 -0.55724103013 0.82803553756 0.027167064458 -0.542906179 0.83935381778 
0.0064310514539 -0.53343136341 0.84581890621 0.0064310514539 -0.53343136341 0.84581890621 
FrenetNormal 3 128 double
0.31696523884 -0.89031153343 0.32692263734 0.31696523884 -0.89031153343 0.32692263734 0.33995118332 -0.88525220812 0.31742986782 
0.37542108728 -0.87677229118 0.30054842647 0.42108061215 -0.86475264863 0.27366763556 0.47397075842 -0.84913112964 0.23308377213 
0.53052929548 -0.82963334796 0.17391714865 0.58638223751 -0.80497275946 0.090414202776 0.63571550449 -0.77158971874 -0.022695886878 
0.67071868999 -0.72282393486 -0.1663189649 0.68320306733 -0.65095385343 -0.33089673539 0.67037388698 -0.55346144931 -0.49424616921 
0.64003762774 -0.43762421426 -0.63153533723 0.60664370518 -0.31576482726 -0.72957246989 0.5820815678 -0.19709378242 -0.78888217711 
0.57156408077 -0.08556210357 -0.81608432653 0.57506748561 0.017709216373 -0.81791428075 0.59044175937 0.11173807196 -0.79930790817 
0.61533465828 0.19479637221 -0.76381780006 0.64833308587 0.26439531237 -0.71397431926 0.68912385641 0.31769149748 -0.65129135029 
0.73815210578 0.35157810095 -0.57578147561 0.79529733689 0.36274592811 -0.48571343154 0.85816769586 0.34762340038 -0.37776471156 
0.91975256597 0.30351615387 -0.2488637413 0.96767579093 0.23154415836 -0.099954321453 0.98835874236 0.13926505734 0.061255532016 
0.97435041587 0.040735932421 0.2213184378 0.92831207492 -0.049811471765 0.3684501443 0.8587251463 -0.12321808004 0.49740167657 
0.77367556063 -0.17579047149 0.60870669211 0.67771350897 -0.20691962008 0.70561226647 0.5720560648 -0.21594642447 0.7912768166 
0.45526269796 -0.20037793569 0.86751631612 0.32327220633 -0.15468482213 0.9335778952 0.16889896692 -0.069616189648 0.98317176786 
-0.016785405492 0.065918401749 0.9976838249 -0.23427317747 0.25252313789 0.93880143968 -0.45271835273 0.45368758483 0.7676025459 
-0.6165477848 0.60064302051 0.50901551151 -0.70795624433 0.66117649403 0.24828129179 -0.75581627239 0.65362944436 0.038862730932 
-0.79263099695 0.59870104181 -0.11529598958 -0.8391335258 0.49413554082 -0.22734333767 -0.9025471683 0.30128595851 -0.30762864008 
-0.93655851088 -0.071328857257 -0.34317684919 -0.74606120376 -0.60883329269 -0.26965663713 -0.36325485029 -0.92246252163 -0.13080064956 
-0.084170657331 -0.9949747608 -0.05422661538 0.084067810841 -0.9956971089 -0.038985516598 0.19502035516 -0.97889895592 -0.06102372636 
0.27733151328 -0.95489021419 -0.10616925446 0.343927998 -0.92424849673 -0.16576564324 0.4006885817 -0.88601945205 -0.23327706935 
0.45051077227 -0.83975221276 -0.3030779854 0.49541807294 -0.78584228029 -0.37015245982 0.53735831442 -0.72534431034 -0.43025768255 
0.57879922269 -0.65936008711 -0.47982886047 0.62273623827 -0.58839312024 -0.5157452022 0.6723218315 -0.51177958406 -0.53485045781 
0.73021163503 -0.42720625755 -0.53318456614 0.79676938341 -0.33086289835 -0.50565629844 0.86784747258 -0.21831440517 -0.44629540086 
0.932053971 -0.087759383589 -0.35153049048 0.97258762054 0.055833339082 -0.22573426548 0.97615651566 0.19995188034 -0.084484924594 
0.94234799041 0.33072612251 0.050995067027 0.88209700695 0.44106174771 0.16543701227 0.80835547254 0.53128009596 0.25358014444 
0.730234862 0.60519380886 0.31701340671 0.65247163363 0.66685988684 0.359970358 0.57733726648 0.71920867179 0.38654956625 
0.50600009195 0.76411559326 0.40011406759 0.43951170368 0.80273672723 0.40304244081 0.3792132332 0.83588393866 0.39685685689 
0.32680341566 0.86429076499 0.38236239495 0.28423331435 0.88869551127 0.35976618973 0.25363255258 0.90974653476 0.32868186861 
0.23699903073 0.927772484 0.28821810729 0.23579068269 0.94241129527 0.23719971439 0.24989839815 0.95232993527 0.17498138468 
0.27745544551 0.95532828835 0.10181521121 0.31390033039 0.94924357434 0.020080317782 0.35301244459 0.93328874978 -0.065987298023 
0.38826076861 0.9090795527 -0.15108918694 0.41518120915 0.87989670842 -0.23109813083 0.43134170761 0.84966308003 -0.30334301 
0.43661956028 0.82130054137 -0.36719038703 0.43216738283 0.79634236097 -0.42316686701 0.41967805665 0.77516468095 -0.4722182188 
0.40070718276 0.75775163119 -0.51502060066 0.37750368543 0.74288374974 -0.55282429565 0.35182912156 0.72971946051 -0.58628131317 
0.32563890483 0.71709699797 -0.61622333546 0.30179036774 0.70261061576 -0.64440739952 0.28272991771 0.68422334072 -0.67223672441 
0.27297980179 0.65658231356 -0.70312281525 0.27839617357 0.61077129288 -0.74125164305 0.31136386325 0.52194458659 -0.79411988591 
0.39144560336 0.32493178027 -0.86092373517 0.51337727452 -0.13930425354 -0.84678102184 0.48410599445 -0.72617082163 -0.48817755371 
0.3338287904 -0.93448163018 -0.12370295697 0.22660140444 -0.97236939776 0.056120921272 0.15244186447 -0.97802013023 0.14226068616 
0.090814175238 -0.97835802384 0.18592569154 0.031586100391 -0.97765607619 0.20782424053 -0.030355761155 -0.97555458715 0.21765058063 
-0.097332844501 -0.97059480013 0.22016369216 -0.17048514308 -0.96079867669 0.21863375506 -0.24985128902 -0.94404555076 0.21529591603 
-0.33466931495 -0.91816709859 0.21205100495 -0.42379774557 -0.88078604481 0.2112141428 -0.51536487287 -0.82959891215 0.21485970483 
-0.60687698743 -0.76233190064 0.22483415085 -0.69497802155 -0.67703957238 0.24212180201 -0.77532931664 -0.57271766708 0.26619339694 
-0.84288569348 -0.45037776253 0.29445471426 -0.89293234792 -0.31498924329 0.32164203496 -0.92324414153 -0.17421635338 0.34244549543 
-0.93513279977 -0.037967460204 0.35225717702 -0.93270589839 0.08614955529 0.350197032 -0.92135922598 0.19244087147 0.33773316049 
-0.90587677773 0.27871946091 0.31890864787 -0.89017054364 0.34435593354 0.29835447753 -0.87750537254 0.38922462451 0.28015801406 
-0.86948251263 0.41480282017 0.26821405743 -0.86948251263 0.41480282017 0.26821405743 
FrenetBinormal 3 128 double
-0.15047647354 0.29312327056 0.94415866207 -0.15047647354 0.29312327056 0.94415866207 -0.14691718308 0.28339713612 0.9476821221 
-0.14023764033 0.26680016942 0.95349413938 -0.12880791698 0.24165114917 0.96177608757 -0.11001685587 0.20552441926 0.97244845854 
-0.079999212613 0.15525193227 0.98463036898 -0.033623801608 0.087333418062 0.99561152768 0.034704794951 -0.00080331744334 0.99939728431 
0.12828108849 -0.10780882498 0.98586064918 0.24320691061 -0.22442797124 0.94365379475 0.36550836838 -0.33336416029 0.86906384649 
0.47707637227 -0.41795167007 0.77312000136 0.56646366886 -0.47219656852 0.675388268 0.6320609358 -0.50067541584 0.59145845282 
0.67748696314 -0.51191099536 0.52816526542 0.70704677974 -0.51370581962 0.48599504334 0.72362590049 -0.51187466291 0.46297935765 
0.72850304463 -0.51063360458 0.45665811702 0.72137058487 -0.51323187848 0.46499195498 0.70044210795 -0.52236831398 0.48632519775 
0.66226165984 -0.54032984791 0.51908876829 0.60184156633 -0.56856576195 0.56082056255 0.51304656464 -0.60682977462 0.60707565192 