# vtk DataFile Version 4.2
vtk output
ASCII
DATASET POLYDATA
POINTS 128 float
0 0 0 -0.312865 0.119479 0.0270601 -0.937884 0.315778 0.0938663 
-1.48072 0.385139 0.182228 -1.93414 0.324656 0.291119 -2.39011 0.186444 0.422781 
-2.83628 -0.0158421 0.569872 -3.2406 -0.276217 0.723259 -3.61257 -0.575264 0.877727 
-3.97172 -0.891844 1.02924 -4.32815 -1.21538 1.17396 -4.68886 -1.53878 1.30792 
-5.06003 -1.85615 1.42606 -5.44678 -2.1624 1.52283 -5.85006 -2.45452 1.59199 
-6.26877 -2.73075 1.62734 -6.69825 -2.99236 1.62427 -7.13226 -3.2423 1.57916 
-7.56271 -3.48694 1.49081 -7.98056 -3.73409 1.3591 -8.37542 -3.99252 1.18486 
-8.73579 -4.27103 0.969576 -9.04687 -4.57581 0.716889 -9.29307 -4.91084 0.431896 
-9.46363 -5.27183 0.123846 -9.55141 -5.65064 -0.196364 -9.56052 -6.03773 -0.519217 
-9.50034 -6.42346 -0.836459 -9.3812 -6.80301 -1.14482 -9.21328 -7.17385 -1.44277 
-9.00195 -7.53363 -1.72313 -8.75035 -7.88066 -1.97789 -8.4634 -8.21828 -2.2168 
-8.14456 -8.55024 -2.44938 -7.77359 -8.85883 -2.59329 -7.32942 -9.11207 -2.52578 
-6.92348 -9.25345 -2.23996 -6.71862 -9.22804 -1.80221 -6.67546 -9.09465 -1.29543 
-6.68015 -8.94999 -0.799388 -6.70226 -8.81592 -0.322744 -6.74744 -8.6826 0.155375 
-6.81117 -8.55392 0.638861 -6.88475 -8.44002 1.12402 -6.96477 -8.34826 1.61109 
-7.05031 -8.28526 2.10201 -7.13939 -8.26353 2.59658 -7.22931 -8.2991 3.09233 
-7.31578 -8.41278 3.57555 -7.39384 -8.62545 4.02622 -7.45973 -8.93304 4.42263 
-7.51083 -9.31675 4.74446 -7.54869 -9.75262 4.9956 -7.57721 -10.2149 5.19391 
-7.59885 -10.6903 5.35503 -7.61502 -11.1732 5.49276 -7.62579 -11.66 5.61671 
-7.63032 -12.1487 5.73368 -7.62692 -12.6377 5.84871 -7.61326 -13.1262 5.96567 
-7.58621 -13.613 6.08739 -7.54202 -14.0968 6.21598 -7.47631 -14.5759 6.35268 
-7.38425 -15.0482 6.49811 -7.26094 -15.5107 6.65199 -7.10153 -15.9595 6.81335 
-6.90236 -16.39 6.98061 -6.66088 -16.7968 7.15171 -6.37693 -17.1744 7.32463 
-6.0525 -17.5179 7.49746 -5.69139 -17.8233 7.66919 -5.29904 -18.0879 7.83967 
-4.88125 -18.3106 8.0096 -4.44413 -18.4914 8.18039 -3.9933 -18.6313 8.35378 
-3.53387 -18.7318 8.53169 -3.07035 -18.795 8.71586 -2.60656 -18.8233 8.90778 
-2.14569 -18.8195 9.10846 -1.69015 -18.7866 9.31836 -1.24175 -18.7277 9.53763 
-0.801568 -18.6462 9.76607 -0.370201 -18.5457 10.0034 0.0522726 -18.4295 10.2495 
0.466068 -18.3014 10.5041 0.871732 -18.1652 10.7675 1.2699 -18.025 11.04 
1.66132 -17.8853 11.3224 2.04656 -17.7509 11.6157 2.42596 -17.6271 11.9211 
2.79938 -17.5195 12.2398 3.16597 -17.4345 12.573 3.5241 -17.3783 12.9214 
3.871 -17.3573 13.2848 4.20333 -17.3774 13.6619 4.51698 -17.4425 14.0498 
4.8082 -17.5553 14.4443 5.07404 -17.7154 14.8403 5.31269 -17.9216 15.2323 
5.52427 -18.1706 15.6148 5.70976 -18.4585 15.9832 5.87133 -18.7813 16.3334 
6.01141 -19.1347 16.6626 6.13263 -19.515 16.9683 6.23726 -19.9188 17.249 
6.32672 -20.3432 17.5034 6.40183 -20.7855 17.7302 6.46219 -21.2436 17.9283 
6.50676 -21.7156 18.0957 6.53338 -22.1994 18.2301 6.53957 -22.6927 18.3284 
6.52252 -23.1918 18.3874 6.48 -23.6928 18.4046 6.41139 -24.1905 18.379 
6.31729 -24.68 18.3116 6.2009 -25.1578 18.2063 6.06617 -25.6217 18.0683 
5.91806 -26.0734 17.9038 5.76154 -26.5145 17.7191 5.60111 -26.9462 17.5204 
5.44135 -27.372 17.3132 5.28731 -27.8049 17.1018 5.14354 -28.2496 16.8914 
5.01243 -28.6778 16.6909 4.89816 -29.0886 16.5059 4.81288 -29.606 16.3271 
4.76593 -30.2424 16.163 4.75207 -30.5689 16.0887 
LINES 1 129
128 0 1 2 3 4 5 6 7 8 9 10 11 12 13 14 15 16 17 18 19 20 21 22 23 24 25 26 27 28 29 30 31 32 33 34 35 36 37 38 39 40 41 42 43 44 45 46 47 48 49 50 51 52 53 54 55 56 57 58 59 60 61 62 63 64 65 66 67 68 69 70 71 72 73 74 75 76 77 78 79 80 81 82 83 84 85 86 87 88 89 90 91 92 93 94 95 96 97 98 99 100 101 102 103 104 105 106 107 108 109 110 111 112 113 114 115 116 117 118 119 120 121 122 123 124 125 126 127 

CELL_DATA 1
FIELD FieldData 2
Length 1 1 double
57.467669347 
Tortuosity 1 1 double
0.64807569016 
POINT_DATA 128
SCALARS MaximumInscribedSphereRadius float
LOOKUP_TABLE default
1.24 1.16791 1.09582 1.03682 0.97896 1.05884 1.14321 1.19686 1.24896 
1.27851 1.30644 1.49477 1.6983 1.85326 2.00248 1.94253 1.8529 1.91434 
2.00086 2.13939 2.28785 2.27826 2.2344 2.1163 1.98028 1.81538 1.64285 
1.53438 1.44438 1.42157 1.42012 1.5565 1.74098 1.75639 1.70646 1.6874 
1.68236 1.63176 1.57124 1.50943 1.4473 1.60877 1.83223 1.96008 2.05833 
2.01207 1.91623 1.87919 1.86429 1.94274 2.05897 2.20748 2.36969 2.30546 
2.13799 2.01517 1.91451 1.87486 1.86824 1.86401 1.86119 1.86006 1.86002 
1.86 1.86 1.86 1.86 1.86 1.86 1.8529 1.83968 1.81899 
1.79141 1.78381 1.79605 1.81463 1.83999 1.85504 1.85823 1.87384 1.90484 
1.96023 2.04829 2.09273 2.07393 2.0399 1.98192 1.98839 2.10473 2.21302 
2.30637 2.27824 2.00499 1.77753 1.65058 1.57777 1.63431 1.73807 1.96464 
2.14894 2.21309 2.22011 2.04853 1.94353 2.06926 2.19256 2.30647 2.38738 
2.32472 2.27141 2.26423 2.27233 2.36674 2.4611 2.55516 2.64139 2.66724 
2.67492 2.51193 2.35756 2.30636 2.26308 2.35203 2.44321 2.59758 2.75349 
2.92674 3.1 
TEXTURE_COORDINATES TCoords 2 float
0 0 0.00787402 0 0.015748 0 0.023622 0 0.0314961 
0 0.0393701 0 0.0472441 0 0.0551181 0 0.0629921 0 
0.0708661 0 0.0787402 0 0.0866142 0 0.0944882 0 0.102362 
0 0.110236 0 0.11811 0 0.125984 0 0.133858 0 
0.141732 0 0.149606 0 0.15748 0 0.165354 0 0.173228 
0 0.181102 0 0.188976 0 0.19685 0 0.204724 0 
0.212598 0 0.220472 0 0.228346 0 0.23622 0 0.244094 
0 0.251969 0 0.259843 0 0.267717 0 0.275591 0 
0.283465 0 0.291339 0 0.299213 0 0.307087 0 0.314961 
0 0.322835 0 0.330709 0 0.338583 0 0.346457 0 
0.354331 0 0.362205 0 0.370079 0 0.377953 0 0.385827 
0 0.393701 0 0.401575 0 0.409449 0 0.417323 0 
0.425197 0 0.433071 0 0.440945 0 0.448819 0 0.456693 
0 0.464567 0 0.472441 0 0.480315 0 0.488189 0 
0.496063 0 0.503937 0 0.511811 0 0.519685 0 0.527559 
0 0.535433 0 0.543307 0 0.551181 0 0.559055 0 
0.566929 0 0.574803 0 0.582677 0 0.590551 0 0.598425 
0 0.606299 0 0.614173 0 0.622047 0 0.629921 0 
0.637795 0 0.645669 0 0.653543 0 0.661417 0 0.669291 
0 0.677165 0 0.685039 0 0.692913 0 0.700787 0 
0.708661 0 0.716535 0 0.724409 0 0.732283 0 0.740157 
0 0.748031 0 0.755906 0 0.76378 0 0.771654 0 
0.779528 0 0.787402 0 0.795276 0 0.80315 0 0.811024 
0 0.818898 0 0.826772 0 0.834646 0 0.84252 0 
0.850394 0 0.858268 0 0.866142 0 0.874016 0 0.88189 
0 0.889764 0 0.897638 0 0.905512 0 0.913386 0 
0.92126 0 0.929134 0 0.937008 0 0.944882 0 0.952756 
0 0.96063 0 0.968504 0 0.976378 0 0.984252 0 
0.992126 0 1 0 
FIELD FieldData 7
Curvature 1 128 double
0 0.046364671464 0.08382450566 0.11364993359 0.13291059045 0.14009917505 0.13594734606 0.12343701728 0.10708284537 
0.092072346385 0.083297541764 0.08338827782 0.091035658355 0.10288230865 0.11635011574 0.13037647328 0.14504346424 0.16100542814 
0.17889872712 0.19883491437 0.22007808671 0.24101510671 0.25952261362 0.27355207936 0.28204844568 0.28560916894 0.28668128496 
0.28952560515 0.29983937789 0.32525922197 0.37620962809 0.46705694603 0.61448160364 0.82239541873 1.0387544191 1.128988234 
1.0028467029 0.75141316947 0.512291924 0.33811489057 0.22447340378 0.15697521808 0.12769565135 0.13046617206 0.15367246911 
0.18646399547 0.22170696179 0.25358923634 0.27623067521 0.28473145189 0.27711810514 0.25539969462 0.22439097085 0.18961585212 
0.15559776687 0.12542312969 0.10120964419 0.084754951219 0.077461846736 0.079198831673 0.087732678719 0.10033338533 0.11492899342 
0.13017604614 0.14510773633 0.15886864474 0.17067687461 0.17985249372 0.18587018907 0.18847596377 0.18771778666 0.18391859414 
0.17759335341 0.16932849997 0.15974271653 0.14923123834 0.13823540338 0.12689119287 0.11538476129 0.10379599226 0.09217971706 
0.080777778156 0.070033192865 0.060666663682 0.054044018439 0.051888423938 0.055397672971 0.064186185152 0.076795788557 0.091860526446 
0.10818658357 0.12497481983 0.14134091944 0.15643837633 0.16953838459 0.17991773545 0.1871921037 0.19129319105 0.19238827595 
0.19113579276 0.18825464932 0.18459134863 0.18090929073 0.17778626783 0.17559456867 0.17445526325 0.17424925343 0.17458341263 
0.17485479053 0.17434731645 0.17211846214 0.16745416913 0.15966589796 0.14854195688 0.13420283685 0.11719764168 0.098354603199 
0.078721041597 0.059579838746 0.042303007946 0.028790243176 0.021270952458 0.019777788018 0.020024112955 0.018424099656 0.013971498965 
0.0071291940916 0 
Torsion 1 128 double
0 0 -0.027067537392 -0.041958363602 -0.06352404314 -0.09597122787 -0.14640474821 -0.22552792894 -0.34393927163 
-0.48918933466 -0.57769205471 -0.50533845594 -0.32135071752 -0.13869828166 0.0027929622075 0.10550887391 0.17658480777 0.2196006013 
0.23771309091 0.23634765945 0.22284768493 0.20505211714 0.1890767584 0.17938657531 0.17919541128 0.19080368831 0.21570939752 
0.25332719573 0.29911872622 0.34247080816 0.36951088319 0.3700880795 0.34442317405 0.3023874719 0.26074960307 0.23674208031 
0.23901173231 0.26832786684 0.32911086858 0.44061724282 0.63712608692 0.92113436813 1.0779971579 0.85564040434 0.53333352293 
0.31903555087 0.19776788483 0.12975760424 0.091660891709 0.071819000204 0.064874214713 0.069104963692 0.085757516128 0.11858052526 
0.17452122349 0.2634266956 0.38950931488 0.52301288387 0.57507534967 0.49105320562 0.34603191775 0.22108731039 0.13634811213 
0.084590365958 0.055405100166 0.041116834479 0.036713736576 0.03892156078 0.045585871084 0.055108758234 0.066402369367 0.078495587864 
0.090700696601 0.10236979939 0.11303593312 0.12309406512 0.13269138842 0.14338156803 0.15731564614 0.17789914841 0.21063334557 
0.26283158045 0.34509668912 0.46461272908 0.60094505978 0.67390308321 0.61045849785 0.46756877837 0.33380190319 0.23674094632 
0.17273312325 0.13154003209 0.10513265523 0.088877337744 0.079716399563 0.075288618007 0.074198577603 0.075233330454 0.077297197703 
0.079338929178 0.080209486423 0.078910377438 0.074858627413 0.067700387609 0.057808692332 0.046283374789 0.034554879936 0.02388996848 
0.01572859875 0.010666701431 0.0088675215697 0.010603092311 0.015810966979 0.024993113345 0.039340206153 0.061076410768 0.094861987786 
0.15136236795 0.2520644346 0.44474243204 0.79192730631 1.0927827095 0.8499855975 0.47808648722 0.25976038365 0.14272212183 
0 0 
Abscissas 1 128 double
0 0.50241948857 1.0048389771 1.5072564124 2.0096736687 2.5120964603 3.0145194326 3.5169394698 4.0193593585 
4.5217781113 5.0241967823 5.5266176228 6.0290386689 6.531454537 7.0338697932 7.5362903542 8.0387116676 8.5411330584 
9.0435544621 9.545971144 10.048386923 10.550808537 11.053231415 11.555651077 12.058069964 12.56048758 13.06290486 
13.56532547 14.067747042 14.570166085 15.072584324 15.575004611 16.077425611 16.579846169 17.082266557 17.584688793 
18.087111868 18.589531142 19.091949588 19.594368573 20.096787691 20.59920702 21.101626407 21.604046108 22.106465907 
22.608884589 23.111302887 23.613724325 24.116146944 24.618566174 25.120984031 25.623402501 26.12582123 26.62823947 
27.130657486 27.633066553 28.135471176 28.637906841 29.140359304 29.642767053 30.145148496 30.647578663 31.150039958 
31.65245431 32.154836222 32.657239599 33.159658994 33.662087922 34.164524505 34.666952849 35.169374096 35.671790608 
36.174202742 36.676616836 37.179032875 37.681453126 38.183877876 38.68629939 39.188717184 39.691134893 40.193552494 
40.695970616 41.198389433 41.700811091 42.203236867 42.705663504 43.208091494 43.71050897 44.212908523 44.715317904 
45.217745505 45.720172713 46.222599128 46.725015398 47.227409397 47.729816455 48.232254705 48.734688283 49.237109711 
49.739534601 50.241969331 50.74439309 51.246782555 51.749183629 52.251624934 52.75405778 53.256457928 53.758860171 
54.261271527 54.763685476 55.266112229 55.768536685 56.270948166 56.773359564 57.275770412 57.778185759 58.280635784 
58.783082173 59.285494425 59.78790761 60.290331959 60.792755676 61.295168827 61.797582807 62.300020334 62.802453623 
63.304838803 63.807223983 
ParallelTransportNormals 3 128 double
0.10105666061 0 0.99488067191 0.14795350095 -0.0074806616505 0.98770548827 0.19485034129 -0.014961323301 0.98053030464 
0.24440244877 -0.0070142001985 0.96831428682 0.29418595493 0.0022774087224 0.95565897521 0.32171428335 0.01666996314 0.94614364279 
0.34851617358 0.03122901911 0.93673080341 0.35177924693 0.033526913008 0.93547815293 0.35385085541 0.035204183362 0.93463854694 
0.33749799704 0.020743476016 0.94077412562 0.31981806254 0.0051203836104 0.94741211238 0.28266032736 -0.025021921945 0.95751110161 
0.24365734227 -0.056539720406 0.96793797253 0.1848454533 -0.097414285098 0.97507185692 0.12369295244 -0.13939444142 0.98181664337 
0.051930723333 -0.18306279558 0.97798958875 -0.021336293079 -0.22697058836 0.97266312039 -0.090830875488 -0.26874189494 0.9553689704 
-0.15969938044 -0.31015862784 0.9360886503 -0.21644048822 -0.35139470161 0.90784275783 -0.27086384206 -0.39259624833 0.87788339046 
-0.3094429414 -0.43608037364 0.84240615113 -0.34458616968 -0.48005948253 0.80573234578 -0.36203898381 -0.52348160977 0.76915541812 
-0.37522315004 -0.56676933889 0.73260186677 -0.37544315372 -0.60294361831 0.70254829725 -0.37224569173 -0.63724273072 0.6742081793 
-0.36437307945 -0.6624616583 0.65382556258 -0.35515153852 -0.68506066553 0.63573893652 -0.34675887082 -0.69955951793 0.62457919656 
-0.33862960906 -0.71148423853 0.61562073771 -0.33925615452 -0.7117909546 0.61500224434 -0.34293783717 -0.70804383568 0.61729378976 
-0.42210176778 -0.6585429567 0.6104662539 -0.53043818804 -0.59135909759 0.60011436217 -0.6510731601 -0.55817074288 0.47554959485 
-0.77729273942 -0.54041929031 0.29912229408 -0.8043155078 -0.55052534143 0.2129791627 -0.80975235788 -0.56669337976 0.14648249663 
-0.80858488437 -0.57783331493 0.10464034849 -0.80578318435 -0.58772905614 0.068898910922 -0.80143983846 -0.59607312363 0.034683651776 
-0.79666906312 -0.60398698142 0.00089153362891 -0.78953488799 -0.61047659028 -0.042458177763 -0.78166894632 -0.61652521675 -0.088767154372 
-0.76933493484 -0.61413944915 -0.15828781887 -0.75546748663 -0.60885900663 -0.23577470952 -0.73764037078 -0.57265465805 -0.33755831871 
-0.71832252377 -0.52480811263 -0.44848912875 -0.70336212631 -0.44965836928 -0.53845291332 -0.69016565982 -0.36345606967 -0.61992907569 
-0.68326533005 -0.29586282929 -0.66448434885 -0.67903407853 -0.23615840032 -0.69338800156 -0.67713432329 -0.20149845887 -0.70735134819 
-0.67629750492 -0.17825638201 -0.71450335993 -0.6760265809 -0.17125938146 -0.71669881731 -0.67603656478 -0.17232637781 -0.71643385911 
-0.67567717822 -0.18526539553 -0.71329078742 -0.67511789848 -0.20462922624 -0.7085901595 -0.67282033661 -0.23432948554 -0.70085172848 
-0.66950010926 -0.27011086854 -0.69132609832 -0.66211180334 -0.31507758048 -0.67809895029 -0.65212461046 -0.36591232846 -0.66250709215 
-0.63498682922 -0.42338224389 -0.64300977512 -0.61290754407 -0.48543747515 -0.62081354166 -0.58123675443 -0.54956312886 -0.5955670095 
-0.54240829371 -0.61523383765 -0.5680441885 -0.4944363586 -0.67723614187 -0.53931020236 -0.43912450586 -0.73629363691 -0.50960395426 
-0.37783525493 -0.78796273635 -0.48013702497 -0.31139755528 -0.83326806772 -0.45087622561 -0.2428387125 -0.87036783658 -0.42229143637 
-0.17231965512 -0.89988458884 -0.39433136918 -0.10257008781 -0.92225934318 -0.36682525803 -0.033584425831 -0.93754393429 -0.33976980823 
0.03245919332 -0.94734261356 -0.31309401845 0.095360864691 -0.95128262606 -0.28682368571 0.15369986108 -0.95163041539 -0.26132580752 
0.20679131825 -0.94784678356 -0.23671633044 0.25448302027 -0.94238697405 -0.21355364961 0.29547716918 -0.93484812784 -0.19218549362 
0.33096523737 -0.92725338302 -0.17292042089 0.35907706839 -0.91958375345 -0.15647274984 0.381813689 -0.91302447126 -0.14275462803 
0.39676021062 -0.90807437558 -0.13299234373 0.4063040326 -0.90490652785 -0.12672819416 0.40736291307 -0.90453770112 -0.12595786631 
0.40310358137 -0.90584260691 -0.12948371528 0.38977801994 -0.9100008106 -0.14033347779 0.37139914205 -0.91474700746 -0.15635545634 
0.34365087581 -0.92058340644 -0.18196727577 0.31204255958 -0.92487662994 -0.21301829915 0.27264643922 -0.92605643565 -0.25504313247 
0.23185730761 -0.92347273222 -0.30120352892 0.18801027234 -0.91262746713 -0.35644221066 0.14526575749 -0.89724134388 -0.4132973876 
0.10515471005 -0.87100897981 -0.47401370611 0.067344644969 -0.8410684711 -0.53402780818 0.035517689997 -0.80148589037 -0.59221597784 
0.0059033743694 -0.75953612404 -0.64850107711 -0.017420405658 -0.71085644698 -0.69937574558 -0.039091019838 -0.66089478174 -0.74804288154 
-0.055593602508 -0.6069254392 -0.78980895693 -0.070985935524 -0.55208675588 -0.82965082343 -0.082530736027 -0.49423540156 -0.86282440926 
-0.093263039087 -0.4351078347 -0.89452790361 -0.100854551 -0.371046939 -0.92054861047 -0.10756132 -0.30493095747 -0.94519684538 
-0.11041895738 -0.22987419121 -0.96387405169 -0.11200950005 -0.1528902712 -0.98067467931 -0.10734571009 -0.066393991546 -0.98821258393 
-0.10135067418 0.020060695264 -0.99356532692 -0.087839318243 0.10628054558 -0.98658047447 -0.073799879361 0.19009739757 -0.97831974527 
-0.056311246769 0.25821897506 -0.96172557889 -0.03922939514 0.32333429645 -0.94521640628 -0.025283520546 0.3652736314 -0.9293624721 
-0.012076737685 0.40483309318 -0.91427049863 -0.0058095244566 0.42204716149 -0.90633281882 -0.00016604956712 0.43752187872 -0.89920456082 
-0.0019838484185 0.43219015577 -0.90175875661 -0.0040994961734 0.42566447017 -0.90481762086 -0.011188432676 0.39920276697 -0.91630311323 
-0.018354161134 0.37139318333 -0.9281216629 -0.027703088454 0.30526329598 -0.94940904731 -0.036295075022 0.24448764927 -0.96897288759 
-0.036295075022 0.24448764927 -0.96897288759 -0.036295075022 0.24448764927 -0.96897288759 
FrenetTangent 3 128 double
-0.97326044127 -0.088188220643 0.21210127581 -0.97326044127 -0.088188220643 0.21210127581 -0.96895638915 -0.11773330895 0.217399135 
-0.96085280937 -0.16233895316 0.22451713301 -0.94813345321 -0.21765608735 0.23166523808 -0.9308033543 -0.27838405019 0.236870083 
-0.91003430312 -0.3391665017 0.23833516582 -0.88795105828 -0.39555547616 0.23468869459 -0.86698709305 -0.44462789334 0.22503203537 
-0.84917122844 -0.48507517523 0.20883079077 -0.83564436728 -0.51690419825 0.18576474712 -0.82648552027 -0.54101728636 0.15563412432 
-0.82077196615 -0.55886087472 0.11835498423 -0.81677371133 -0.57219061769 0.074017575658 -0.81220462974 -0.58292066802 0.022959403654 
-0.80448102596 -0.59299383681 -0.034184622002 -0.79094871451 -0.6042297363 -0.096470496933 -0.76905013111 -0.61814611987 -0.1626569099 
-0.73644854786 -0.63575605077 -0.23120938617 -0.69114799196 -0.65738293676 -0.3002700912 -0.63167128359 -0.68253836339 -0.36760409681 
-0.55734308732 -0.70990778322 -0.43058056429 -0.46861800468 -0.73752268121 -0.48626891778 -0.36731904144 -0.76312839319 -0.53170647664 
-0.25657014787 -0.78469520989 -0.5642917568 -0.14029464242 -0.80090365161 -0.5821260638 -0.022420654052 -0.8113828083 -0.58408497041 
0.093922053624 -0.81660291666 -0.56950708893 0.20686453799 -0.81746214342 -0.53755251557 0.31577602326 -0.81469460675 -0.4863724919 
0.42073708221 -0.80812560547 -0.41220542626 0.52130946671 -0.79563507362 -0.30854702971 0.61411410319 -0.77154761258 -0.16606670285 
0.68856410711 -0.724768354 0.024296160762 0.72293341435 -0.64006258106 0.26016758202 0.69202195629 -0.5103187661 0.51056867214 
0.59400703973 -0.35463088191 0.72207518608 0.46089024163 -0.20954023494 0.86236481556 0.32871997534 -0.098930415676 0.93923157457 
0.21530863005 -0.026692909071 0.97618117295 0.12389465193 0.012279193611 0.99221939944 0.05199236081 0.023896963847 0.99836152246 
-0.0039546843618 0.01236967483 0.99991567225 -0.047032541503 -0.019794009382 0.99869722 -0.079534089523 -0.071104108405 0.99429298216 
-0.10301008508 -0.140275569 0.98473940061 -0.1184137712 -0.22533310474 0.96705903165 -0.12631688221 -0.32278443891 0.93800546441 
-0.12718008749 -0.42719931444 0.89516812448 -0.12163533015 -0.53160647137 0.8382120293 -0.11065698351 -0.62886533728 0.76959951895 
-0.09549649088 -0.71343409469 0.69418456679 -0.077412288631 -0.78250453646 0.61781387812 -0.057359557029 -0.83596677 0.54577416636 
-0.035820688146 -0.87552838801 0.48183702649 -0.01279672988 -0.90365085893 0.4280786947 0.012103815967 -0.92276416207 0.38517502365 
0.0395285039 -0.93485191879 0.35283053626 0.070246567529 -0.94130833812 0.33015758712 0.10503626377 -0.94294534511 0.31594534247 
0.14457553327 -0.94006389763 0.30883293792 0.18934480878 -0.93254386689 0.30742556775 0.23953465711 -0.91994403845 0.310364486 
0.2949614188 -0.90161141608 0.31637733138 0.35501356012 -0.87680119873 0.32432241678 0.41862234123 -0.8448186102 0.33322192496 
0.48428514537 -0.80517317271 0.3422923603 0.55016343914 -0.75771871262 0.35097370669 0.61423883194 -0.70275781622 0.35894583029 
0.67451502463 -0.64107779225 0.36612668005 0.7292285919 -0.57390216363 0.37264187545 0.77701452237 -0.5027711954 0.3787737545 
0.81699878093 -0.4293861651 0.38489026121 0.8488085868 -0.35545514915 0.39137657048 0.87252397172 -0.28256211916 0.39857316466 
0.88858211377 -0.21210739744 0.4067336709 0.8976768254 -0.14526871229 0.41602081482 0.90066938579 -0.083007796787 0.42650247734 
0.89850789425 -0.026105693925 0.43818039289 0.89216675887 0.024822082845 0.45102365632 0.88259967288 0.069264972334 0.4649948183 
0.87069956675 0.10679731057 0.48007978391 0.8572596356 0.13707412497 0.49630293313 0.8429420145 0.1597817023 0.51373005344 
0.8282513631 0.17462696211 0.53245197307 0.8135097177 0.18132431869 0.55256079363 0.79884012517 0.1795918806 0.57410905832 
0.78415679306 0.16916786888 0.59705975918 0.76917115856 0.1498220286 0.62123191208 0.75340776335 0.12139238634 0.64625121328 
0.73624069229 0.083862161676 0.67150337368 0.71695461455 0.037422576765 0.6961146683 0.69482733584 -0.017456072634 0.71896471325 
0.66923449192 -0.079918992319 0.73874092177 0.63975485161 -0.14871823801 0.75405345667 0.60627073088 -0.22223624489 0.76357504696 
0.56901253168 -0.2985800873 0.76620798107 0.52853629267 -0.3757673907 0.76121498633 0.48565435938 -0.45189281766 0.74828652571 
0.44129586316 -0.52531523065 0.72753135301 0.39635516441 -0.59477866297 0.69938610633 0.35156851362 -0.65943090548 0.66449263437 
0.3074263632 -0.71879034071 0.62356192741 0.26415634478 -0.77264616295 0.57726885624 0.22174602678 -0.82094160083 0.52619728966 
0.18000792284 -0.86366357262 0.4708315846 0.1386737059 -0.90075636657 0.41159151033 0.097502934813 -0.93207047844 0.34890944517 
0.056381851803 -0.95736348584 0.28333062447 0.015411496673 -0.97636250033 0.21558931726 -0.025034231837 -0.98886542045 0.14669174303 
-0.064313445868 -0.99488259225 0.077925658956 -0.10156258239 -0.99477054313 0.010798536029 -0.13579985589 -0.98931343809 -0.053078435806 
-0.16605962562 -0.97971501076 -0.11217262782 -0.19151097995 -0.96748963055 -0.1651888596 -0.2115586519 -0.95427634001 -0.21118618255 
-0.22589677249 -0.9416245026 -0.24962761123 -0.23452460067 -0.93079346639 -0.28039567507 -0.23775312041 -0.92261348877 -0.30373969789 
-0.23619514746 -0.91742378145 -0.32022719675 -0.23075914221 -0.91508372998 -0.33071435622 -0.22262583458 -0.91506325671 -0.33629893547 
-0.21318683574 -0.91658686671 -0.33826009051 -0.20393174452 -0.91880078153 -0.33796000865 -0.19627637303 -0.92092811686 -0.33670014698 
-0.19137128006 -0.92238019618 -0.3355470263 -0.19137128006 -0.92238019618 -0.3355470263 
FrenetNormal 3 128 double
0.1282557087 -0.97465941641 0.18327437131 0.1282557087 -0.97465941641 0.18327437131 0.15605680584 -0.97327484128 0.16847064042 
0.19743723875 -0.96971087597 0.1438031772 0.24737351424 -0.96291146169 0.10773978559 0.29944997032 -0.95238267004 0.057419204786 
0.34634690586 -0.93802435707 -0.012414762943 0.37975479493 -0.91839276096 -0.11109019915 0.38895035802 -0.88606460876 -0.25220453623 
0.35921582109 -0.82037962705 -0.44490590174 0.28074261706 -0.69263353605 -0.66441129409 0.17724473004 -0.51247153132 -0.84021261313 
0.10004798178 -0.34460999702 -0.93339935253 0.075365915654 -0.23300062602 -0.96955179698 0.10003899092 -0.17794541187 -0.97894209772 
0.16295071584 -0.16498985877 -0.97274118383 0.25309336485 -0.17952655405 -0.95063871427 0.35984637775 -0.2083856249 -0.90944269515 
0.47292653407 -0.23945406776 -0.84793999953 0.58381257649 -0.26294327491 -0.76813000834 0.68663109704 -0.27243779203 -0.6740292175 
0.77793125641 -0.26525952532 -0.56961420675 0.85564498677 -0.24204451642 -0.4574779871 0.9180156216 -0.20563138232 -0.33906201956 
0.96337478471 -0.16051921174 -0.21480830254 0.99010642067 -0.11194869899 -0.084597662759 0.99650776104 -0.065141123596 0.052239029549 
0.98023411181 -0.024198201509 0.19635562914 0.9378065719 0.0091104115421 0.34703866371 0.86526310945 0.036901574922 0.49995802344 
0.7602873297 0.066218283319 0.64620299848 0.62338409282 0.10813561989 0.77440232472 0.45535644341 0.17453080696 0.87303465387 
0.25372202047 0.27216355567 0.92819832756 0.018206127072 0.39407049272 0.91889987687 -0.23296171293 0.51155974209 0.82706436907 
-0.46016081386 0.58645866493 0.6665720214 -0.63518098392 0.60074197623 0.4854422681 -0.76277807435 0.55859083014 0.32580038948 
-0.86375924016 0.46115208578 0.20312244784 -0.95092031984 0.28719904469 0.11518356669 -0.99861016527 -0.0073983263078 0.052182397243 
-0.91111077907 -0.41215884378 0.0014952414165 -0.66416315701 -0.74616696431 -0.046066932216 -0.4135765194 -0.90519979618 -0.097815088811 
-0.23686415619 -0.95806713554 -0.16125363661 -0.11983964222 -0.96354913439 -0.23918930947 -0.03875259557 -0.94325212045 -0.32980854083 
0.021852933952 -0.90348447412 -0.4280633765 0.070648769612 -0.84697745943 -0.52691359308 0.1129101767 -0.7772963012 -0.61891982691 
0.15262783662 -0.6996197866 -0.69802356528 0.19430835893 -0.61963212898 -0.76046057517 0.24415999848 -0.54181991772 -0.80424938415 
0.31080416829 -0.4679961463 -0.82727285464 0.40584150596 -0.39595927758 -0.82371653045 0.54023461665 -0.31810955662 -0.77907179962 
0.70908784174 -0.22254127662 -0.66908132009 0.86899815895 -0.10476802283 -0.48359679603 0.96309356352 0.017278993434 -0.26861166075 
0.98827232803 0.12168057261 -0.092258570831 0.97830516401 0.20597086117 0.022248829805 0.95668314019 0.27812751966 0.086037503948 
0.93126252324 0.34537835276 0.11603407369 0.90265247112 0.4117722024 0.12514859055 0.8693585034 0.47889257255 0.12197416337 
0.82972705577 0.5467681537 0.11223902632 0.78258106698 0.6144830398 0.099887273494 0.72739257262 0.68058846928 0.087746115404 
0.66426672227 0.74342191863 0.077933128956 0.59388370361 0.80132832356 0.071937920812 0.51728400471 0.85287046481 0.070917055206 
0.43582923239 0.8968637079 0.075421281133 0.35090049833 0.93246824919 0.085859213424 0.26402049923 0.95911124553 0.10197448059 
0.17650352956 0.97650459512 0.12363365139 0.089524767153 0.98453119421 0.15061090165 0.0040293505402 0.98313568927 0.18283320491 
-0.079607376329 0.97198596985 0.22114687438 -0.16145427466 0.95005149941 0.26708550254 -0.24239784647 0.91452415803 0.32386547887 
-0.32372957939 0.85930346332 0.39597565248 -0.40634170485 0.77209593568 0.48862489191 -0.48761409917 0.63038451047 0.60402637297 
-0.55315356275 0.40666043319 0.72708213298 -0.5741579012 0.099397173433 0.81268868973 -0.53608453716 -0.22041447094 0.81488086861 
-0.46802299713 -0.47056575991 0.7480122591 -0.40655978417 -0.63529357667 0.65659059796 -0.36600340299 -0.73907320371 0.56551950324 
-0.34668933372 -0.80543936485 0.48070150346 -0.34431317148 -0.8492511191 0.40027612552 -0.3545759732 -0.87807071335 0.32135292373 
-0.37369711848 -0.89551785351 0.2416572732 -0.39814820831 -0.90332347209 0.15963930905 -0.42487561428 -0.90215807705 0.074776442853 
-0.45131303933 -0.89227748849 -0.01254687443 -0.47515744928 -0.87402270694 -0.10153672315 -0.49480666765 -0.84778867698 -0.1908421359 
-0.50918613212 -0.81417284755 -0.279019815 -0.51799875562 -0.77382237596 -0.36452190556 -0.52167837842 -0.72738216602 -0.44583276467 
-0.52126656984 -0.67543901429 -0.52159687609 -0.51814367661 -0.61850764789 -0.59074141542 -0.51398300289 -0.55698334022 -0.65237338347 
-0.51004088168 -0.49122959278 -0.70608199679 -0.50713249111 -0.4215691595 -0.75172872782 -0.50521849218 -0.34840416149 -0.78953708932 
-0.50388320606 -0.27227518881 -0.81973650414 -0.50172959434 -0.19405616523 -0.84297664196 -0.49776652219 -0.11492393416 -0.85966329382 
-0.49053829925 -0.036484904638 -0.87065551667 -0.47905620974 0.039390943434 -0.87689993812 -0.46221084629 0.1106511484 -0.87983944952 
-0.43885738362 0.17528921846 -0.88129330346 -0.40686833181 0.23141858711 -0.88368750026 -0.36280882234 0.27731567345 -0.88964362286 
-0.29902130252 0.31090559286 -0.90217735118 -0.19964105048 0.32840897167 -0.92319607792 -0.031626510175 0.31989360759 -0.94692546891 
0.26341535993 0.25675940296 -0.92988545378 0.67354937587 0.095059377604 -0.73300406069 0.93170662112 -0.098156243326 -0.34969718909 
0.97666631121 -0.20913319761 -0.04884897334 0.95925988693 -0.2564875137 0.11846782113 0.93895453643 -0.27547236252 0.20610520617 
0.92738446879 -0.28188692239 0.24596302576 0.92738446879 -0.28188692239 0.24596302576 
FrenetBinormal 3 128 double
0.19056386501 0.20557689494 0.95990809644 0.19056386501 0.20557689494 0.95990809644 0.19175450265 0.19716731802 0.96143395999 
0.19437184847 0.18250172961 0.96380117411 0.19962289284 0.15945953903 0.96681092053 0.20960637131 0.12437672774 0.96984307942 
0.22777486241 0.071248787098 0.97110361053 0.25947873482 -0.0095185028174 0.96570191275 0.31153009401 -0.131131787 0.94114475771 
0.38713333449 -0.30278596714 0.87088945305 0.47210388094 -0.5030594742 0.72391235037 0.53432760593 -0.66683823034 0.51944276305 
0.56242668938 -0.75426684447 0.33875912742 0.57201458306 -0.78632601719 0.23343245589 0.5747311021 -0.79280446845 0.20284288278 
0.57118941086 -0.78812223418 0.22935998105 0.55708516376 -0.77632251169 0.29492283425 0.52827311143 -0.75793852378 0.3826966343 
0.48371895737 -0.73380923498 0.47701150609 0.42600155956 -0.70619296841 0.56552114251 0.35990155051 -0.67817330527 0.64074319501 
0.29015796271 -0.65243261993 0.70010001652 0.21970166659 -0.63045598322 0.74448400313 0.1494123164 -0.61265878767 0.77609610848 