# vtk DataFile Version 4.2
vtk output
ASCII
DATASET POLYDATA
POINTS 128 float
0 0 0 -0.300544 0.121392 0.0916973 -0.896139 0.336254 0.278672 
-1.40707 0.459332 0.45126 -1.84282 0.495263 0.610222 -2.305 0.492655 0.782497 
-2.78263 0.440998 0.963188 -3.24147 0.319604 1.14047 -3.67621 0.132442 1.30903 
-4.08884 -0.11011 1.46533 -4.47576 -0.401601 1.60527 -4.83262 -0.736329 1.72503 
-5.16006 -1.10636 1.82306 -5.46027 -1.50346 1.89859 -5.73551 -1.9217 1.95136 
-5.98809 -2.35607 1.98124 -6.22025 -2.80263 1.98797 -6.43411 -3.25795 1.9711 
-6.63095 -3.71928 1.92935 -6.81157 -4.18413 1.86095 -6.97553 -4.64984 1.76292 
-7.12156 -5.11351 1.63159 -7.24621 -5.57087 1.46163 -7.34471 -6.01659 1.24736 
-7.40937 -6.44209 0.985123 -7.43174 -6.83778 0.673339 -7.40681 -7.19668 0.31959 
-7.33195 -7.51412 -0.0643717 -7.21075 -7.7942 -0.465648 -7.04969 -8.04524 -0.871427 
-6.85545 -8.27719 -1.27371 -6.63469 -8.5006 -1.66699 -6.39321 -8.72458 -2.04742 
-6.13638 -8.95743 -2.41202 -5.86906 -9.20652 -2.7581 -5.59606 -9.47878 -3.08277 
-5.324 -9.78106 -3.37955 -5.06047 -10.1201 -3.64008 -4.81282 -10.5021 -3.85692 
-4.59019 -10.9317 -4.01999 -4.42147 -11.4043 -4.08649 -4.34501 -11.9039 -3.99891 
-4.37416 -12.3546 -3.7514 -4.50381 -12.6518 -3.37266 -4.6979 -12.789 -2.91654 
-4.90418 -12.8187 -2.44829 -5.10171 -12.7772 -1.98912 -5.28956 -12.6892 -1.53231 
-5.46494 -12.5701 -1.07527 -5.62369 -12.4296 -0.618334 -5.76266 -12.2762 -0.159832 
-5.87939 -12.1178 0.303241 -5.97032 -11.9625 0.773275 -6.03104 -11.819 1.25212 
-6.05616 -11.6986 1.74045 -6.03973 -11.6151 2.23766 -5.97818 -11.5836 2.73741 
-5.87024 -11.6199 3.22871 -5.72186 -11.7306 3.69883 -5.54487 -11.9141 4.13409 
-5.35102 -12.1624 4.52811 -5.15167 -12.4625 4.88086 -4.95452 -12.803 5.19533 
-4.764 -13.1744 5.477 -4.58278 -13.5693 5.73105 -4.41191 -13.9824 5.96235 
-4.25152 -14.4092 6.17511 -4.10083 -14.8467 6.37299 -3.95881 -15.292 6.55907 
-3.82412 -15.7434 6.73591 -3.69519 -16.1991 6.9056 -3.57017 -16.6579 7.06984 
-3.44715 -17.1186 7.23002 -3.32412 -17.5804 7.38728 -3.19904 -18.0423 7.54255 
-3.06987 -18.5035 7.6965 -2.93466 -18.9632 7.84968 -2.79168 -19.4207 8.00245 
-2.63929 -19.8752 8.15521 -2.47602 -20.3258 8.30836 -2.30048 -20.7714 8.46244 
-2.11139 -21.2109 8.61813 -1.90761 -21.6429 8.77632 -1.68809 -22.0657 8.9381 
-1.45201 -22.4777 9.10467 -1.19878 -22.8768 9.27734 -0.928116 -23.2609 9.45749 
-0.640163 -23.6278 9.64658 -0.33544 -23.9752 9.84604 -0.0150011 -24.3008 10.0572 
0.31981 -24.6026 10.2812 0.66725 -24.8784 10.519 1.02554 -25.1264 10.771 
1.39289 -25.3451 11.0367 1.7677 -25.5331 11.3152 2.14867 -25.6898 11.6044 
2.5348 -25.8151 11.902 2.92552 -25.9095 12.2049 3.32052 -25.9741 12.51 
3.71989 -26.0109 12.814 4.12384 -26.0223 13.1139 4.53273 -26.0112 13.407 
4.94694 -25.9809 13.6911 5.36686 -25.9351 13.9645 5.79284 -25.878 14.2261 
6.22504 -25.8136 14.4755 6.66352 -25.7466 14.7129 7.10816 -25.6817 14.9392 
7.55866 -25.6238 15.1557 8.01449 -25.5781 15.3637 8.47483 -25.5498 15.565 
8.93827 -25.544 15.761 9.40295 -25.5658 15.9532 9.86595 -25.6196 16.1431 
10.324 -25.7092 16.332 10.773 -25.836 16.5211 11.2088 -26.0008 16.7118 
11.627 -26.2021 16.9072 12.0237 -26.4376 17.1096 12.3967 -26.7019 17.3195 
12.7429 -26.9909 17.5394 13.055 -27.3071 17.7816 13.3268 -27.6473 18.0517 
13.5593 -27.9861 18.3251 13.7515 -28.3143 18.597 13.8887 -28.7026 18.9642 
13.9605 -29.1534 19.4406 13.9804 -29.3803 19.69 
LINES 1 129
128 0 1 2 3 4 5 6 7 8 9 10 11 12 13 14 15 16 17 18 19 20 21 22 23 24 25 26 27 28 29 30 31 32 33 34 35 36 37 38 39 40 41 42 43 44 45 46 47 48 49 50 51 52 53 54 55 56 57 58 59 60 61 62 63 64 65 66 67 68 69 70 71 72 73 74 75 76 77 78 79 80 81 82 83 84 85 86 87 88 89 90 91 92 93 94 95 96 97 98 99 100 101 102 103 104 105 106 107 108 109 110 111 112 113 114 115 116 117 118 119 120 121 122 123 124 125 126 127 

CELL_DATA 1
FIELD FieldData 2
Length 1 1 double
58.525261543 
Tortuosity 1 1 double
0.53888688454 
POINT_DATA 128
SCALARS MaximumInscribedSphereRadius float
LOOKUP_TABLE default
0.62 0.62 0.62 0.630073 0.64088 0.696614 0.753 0.849874 0.949014 
1.09172 1.23735 1.38191 1.52637 1.60607 1.67893 1.72498 1.76764 1.68739 
1.58903 1.49444 1.4005 1.37039 1.35258 1.3703 1.3957 1.43464 1.47682 
1.49003 1.49562 1.43637 1.35843 1.32647 1.30904 1.36148 1.43806 1.51641 
1.59543 1.67994 1.76669 1.66612 1.48419 1.28571 1.07948 1.09822 1.22114 
1.37208 1.53685 1.65256 1.74271 1.74636 1.70136 1.64925 1.59283 1.56444 
1.55419 1.5347 1.50881 1.45675 1.38541 1.41129 1.51299 1.67549 1.88844 
2.00551 2.0377 2.01543 1.94168 1.89394 1.87249 1.86049 1.85871 1.8381 
1.79572 1.73852 1.66301 1.58689 1.50997 1.43269 1.35488 1.33175 1.3918 
1.48648 1.63767 1.72276 1.69198 1.62264 1.4806 1.37776 1.35454 1.36215 
1.43731 1.50485 1.55437 1.59842 1.62843 1.66324 1.71146 1.7612 1.81556 
1.85941 1.86826 1.876 1.87969 1.89238 1.94161 1.9947 2.06527 2.1288 
2.15643 2.18091 2.18723 2.19285 2.19389 2.19473 2.19409 2.193 2.18767 
2.18236 2.17738 2.17263 2.17128 2.16831 2.1367 2.10354 1.97135 1.83835 
1.69417 1.55 
TEXTURE_COORDINATES TCoords 2 float
0 0 0.00787402 0 0.015748 0 0.023622 0 0.0314961 
0 0.0393701 0 0.0472441 0 0.0551181 0 0.0629921 0 
0.0708661 0 0.0787402 0 0.0866142 0 0.0944882 0 0.102362 
0 0.110236 0 0.11811 0 0.125984 0 0.133858 0 
0.141732 0 0.149606 0 0.15748 0 0.165354 0 0.173228 
0 0.181102 0 0.188976 0 0.19685 0 0.204724 0 
0.212598 0 0.220472 0 0.228346 0 0.23622 0 0.244094 
0 0.251969 0 0.259843 0 0.267717 0 0.275591 0 
0.283465 0 0.291339 0 0.299213 0 0.307087 0 0.314961 
0 0.322835 0 0.330709 0 0.338583 0 0.346457 0 
0.354331 0 0.362205 0 0.370079 0 0.377953 0 0.385827 
0 0.393701 0 0.401575 0 0.409449 0 0.417323 0 
0.425197 0 0.433071 0 0.440945 0 0.448819 0 0.456693 
0 0.464567 0 0.472441 0 0.480315 0 0.488189 0 
0.496063 0 0.503937 0 0.511811 0 0.519685 0 0.527559 
0 0.535433 0 0.543307 0 0.551181 0 0.559055 0 
0.566929 0 0.574803 0 0.582677 0 0.590551 0 0.598425 
0 0.606299 0 0.614173 0 0.622047 0 0.629921 0 
0.637795 0 0.645669 0 0.653543 0 0.661417 0 0.669291 
0 0.677165 0 0.685039 0 0.692913 0 0.700787 0 
0.708661 0 0.716535 0 0.724409 0 0.732283 0 0.740157 
0 0.748031 0 0.755906 0 0.76378 0 0.771654 0 
0.779528 0 0.787402 0 0.795276 0 0.80315 0 0.811024 
0 0.818898 0 0.826772 0 0.834646 0 0.84252 0 
0.850394 0 0.858268 0 0.866142 0 0.874016 0 0.88189 
0 0.889764 0 0.897638 0 0.905512 0 0.913386 0 
0.92126 0 0.929134 0 0.937008 0 0.944882 0 0.952756 
0 0.96063 0 0.968504 0 0.976378 0 0.984252 0 
0.992126 0 1 0 
FIELD FieldData 7
Curvature 1 128 double
0 0.041809165384 0.078423410069 0.11311609385 0.14469160959 0.17171527728 0.19276521824 0.20682474505 0.21363125413 
0.21383685832 0.20886081539 0.20055814068 0.19085217168 0.18146794237 0.173801862 0.16884921329 0.16721967432 0.16910696414 
0.17430254854 0.18217244913 0.19163328454 0.20116424634 0.20885345421 0.21264375557 0.21071883995 0.20204216039 0.18669420655 
0.16592525231 0.14190019562 0.11759380815 0.097134230842 0.086615296018 0.092374732393 0.11548570665 0.15362778522 0.20721155515 
0.28103372089 0.38388809423 0.5260247891 0.70849103818 0.89746798522 1.0067629751 0.95957991434 0.78624803854 0.5836995078 
0.41367125078 0.28854178559 0.20025684623 0.13924652842 0.10091906978 0.086556930863 0.095525640042 0.11891143142 0.14841986569 
0.17924100752 0.20796999686 0.2313351517 0.24643607769 0.25142064639 0.24616620608 0.23230116785 0.21245845484 0.18949826757 
0.16574451657 0.14274705571 0.12139745252 0.10201276498 0.084638411222 0.069156471891 0.055386317595 0.043256648262 0.032782407659 
0.024418141214 0.019305262847 0.018949561443 0.022846535041 0.028912128624 0.035812295002 0.042992309006 0.050229921231 0.057453140627 
0.064622800226 0.071719389143 0.078736701283 0.08563844958 0.092328515006 0.098759063495 0.10477771088 0.11019202578 0.11484098633 
0.1185055205 0.12095142349 0.12201695469 0.12157385371 0.11950456411 0.11585153121 0.11069364276 0.10413924036 0.096373010789 
0.087623288351 0.078050075 0.067973130025 0.057724373845 0.047865058321 0.039521203787 0.034616592378 0.035277674939 0.041654892931 
0.051809477542 0.063834988455 0.076611684961 0.089383647623 0.10164059291 0.11311323552 0.12346420317 0.1326376725 0.14047024063 
0.14668749959 0.15083219721 0.15215105516 0.14963704376 0.14225222376 0.12932515897 0.1106675695 0.086818912707 0.058868833018 
0.028250221855 0 
Torsion 1 128 double
0 0 -0.018854916005 -0.026239441769 -0.034225253039 -0.042845365711 -0.052185029596 -0.062416783541 -0.073746444395 
-0.086314549128 -0.10017825592 -0.11511021694 -0.13023968168 -0.14378487749 -0.15301276186 -0.15469335112 -0.14636980133 -0.12762770627 
-0.10058998916 -0.06900125102 -0.03638178047 -0.0050497422806 0.024216089129 0.052114477203 0.080449897306 0.11251630498 0.15375489545 
0.2132593122 0.30764730803 0.46474567298 0.70676860526 0.93396131712 0.88075140695 0.61928263673 0.39304103395 0.24517474943 
0.14782567842 0.077827566568 0.023373371516 -0.020278781791 -0.05460060581 -0.08288205605 -0.11129285084 -0.1446189502 -0.18496709863 
-0.23691971825 -0.3135027009 -0.44223082524 -0.67086590519 -1.0164239214 -1.1874097925 -0.8961035126 -0.56169359675 -0.36457184112 
-0.25870144981 -0.19977173896 -0.16532561613 -0.14433125706 -0.13127341302 -0.12285679736 -0.11700159 -0.11241552269 -0.10780120011 
-0.10210782182 -0.094381687156 -0.083266408862 -0.06706825225 -0.043250215104 -0.0075490382194 0.047824853642 0.13925116824 0.29918652403 
0.57886334685 0.92464443851 0.92016573173 0.59773023297 0.3552499223 0.22743619849 0.16237250722 0.1285852097 0.11079876321 
0.10081922067 0.094829243331 0.090302189722 0.085430938569 0.079664157692 0.072390227183 0.063232519703 0.052223161063 0.039319799543 
0.024746198063 0.0086899853471 -0.0085185479358 -0.026812404352 -0.046128543502 -0.066191520581 -0.087296054891 -0.10996826353 -0.13543016765 
-0.16572720848 -0.20486712707 -0.26031038987 -0.34624979828 -0.48533260376 -0.69767499715 -0.91147942665 -0.90145938462 -0.68118658174 
-0.47424286697 -0.34358900825 -0.26721264593 -0.22397514245 -0.20029364998 -0.18802738089 -0.18239692026 -0.17952559037 -0.17635546154 
-0.17019368997 -0.16012134443 -0.14583485364 -0.12810763837 -0.10835398854 -0.088314743158 -0.06892617127 -0.050499740771 -0.034511389655 
0 0 
Abscissas 1 128 double
0 0.50307525165 1.0061505033 1.5092237461 2.0122968427 2.5153760332 3.018455312 3.5215271186 4.024598507 
4.5276757569 5.0307534017 5.5338287021 6.0369037997 6.5399798944 7.0430560944 7.5461297746 8.0492031371 8.5522801199 
9.055357636 9.5584299374 10.061501355 10.56457834 11.067656396 11.570730952 12.07380475 12.576879834 13.079955226 
13.583030779 14.086106374 14.589180522 15.092254252 15.595332299 16.098411709 16.60148519 17.104556622 17.60763266 
18.11071043 18.61379632 19.116885532 19.619940717 20.12298112 20.626053428 21.129140716 21.632223685 22.135304653 
22.638381934 23.141457392 23.644537647 24.147620399 24.650690264 25.153752881 25.656824796 26.159902326 26.662981492 
27.166061718 27.669139748 28.172216257 28.675290267 29.178362436 29.681436757 30.184512755 30.687584607 31.190653019 
31.693742315 32.196850101 32.699932695 33.202991475 33.706062964 34.2091473 34.712218622 35.21527588 35.718351255 
36.221447579 36.724529386 37.227593235 37.730662504 38.233738952 38.736811676 39.239879115 39.742959375 40.246059144 
40.749148618 41.252221292 41.755291525 42.258357476 42.761425107 43.264495905 43.767572816 44.270662142 44.77374963 
45.276833094 45.779911436 46.282977652 46.786048215 47.289129927 47.792204919 48.295261184 48.798319993 49.301386538 
49.804459357 50.30755307 50.810639697 51.313700364 51.816764108 52.319840347 52.822917942 53.326001676 53.829084287 
54.332161174 54.835236331 55.338301488 55.841368203 56.344445266 56.847522436 57.350600433 57.853680042 58.356774487 
58.859868438 59.362956842 59.866042489 60.369088269 60.87213557 61.375209832 61.878283931 62.381347556 62.884412996 
63.387503661 63.890594326 
ParallelTransportNormals 3 128 double
0.29741908075 0 0.95474702953 0.31334971334 -0.0042173889747 0.94946002009 0.32928034593 -0.0084347779493 0.94417301064 
0.34085751735 -0.009240056411 0.93999720255 0.35211789883 -0.0097970445375 0.93590225367 0.35760765211 -0.008716450412 0.93381196207 
0.36301369793 -0.007612101877 0.93175074959 0.35880697522 -0.0098369196714 0.93334292768 0.35406219279 -0.012248082359 0.93513959862 
0.34302964647 -0.021509093759 0.93894830596 0.33157332355 -0.031231764606 0.94289261858 0.31765982485 -0.047930993878 0.94671910663 
0.30353375604 -0.065233764748 0.9505354017 0.28899599038 -0.088278360825 0.95284167171 0.27441470957 -0.11192985101 0.9549883365 
0.25960980365 -0.14137067919 0.95471675502 0.24477671081 -0.17154122669 0.95414036479 0.22901448979 -0.20978398743 0.94958558146 
0.21311537009 -0.24921611609 0.94444461774 0.19579929371 -0.30099491532 0.93149020493 0.17824303171 -0.35486657507 0.9172113493 
0.16123852622 -0.42462747265 0.88718401947 0.14434024136 -0.49744726499 0.85412489379 0.13611011804 -0.57557092959 0.80041562035 
0.12975314343 -0.65484073589 0.74224394763 0.13623942203 -0.71311385387 0.68309632553 0.1458053851 -0.76635217468 0.62371468046 
0.15571004229 -0.79169870985 0.58977646315 0.16570367997 -0.80971761603 0.56252265112 0.16517608463 -0.81072104554 0.56158603157 
0.16161659827 -0.80682114567 0.56823320563 0.14551966203 -0.79158950463 0.59216764599 0.12546075622 -0.77277691099 0.6215650492 
0.092927408466 -0.74031156178 0.66242685037 0.056083874929 -0.70312889429 0.70724984559 0.0052840450091 -0.64077109579 0.76065360337 
-0.05076278329 -0.56894847453 0.81728337801 -0.12079367853 -0.44275278125 0.87233253255 -0.19654552597 -0.29431279046 0.92673504747 
-0.26107947978 -0.020855736719 0.90947844507 -0.32074044502 0.30690801124 0.86109353362 -0.28493318413 0.59191415409 0.65571896535 
-0.20430405275 0.85684580812 0.3766385124 -0.12720282646 0.95979774996 0.16572634506 -0.051735305183 0.9877400013 -0.013618399812 
-0.0056257361346 0.98897177232 -0.12458690682 0.025982873014 0.97701026605 -0.20178190417 0.044447328077 0.96655519529 -0.25018607918 
0.056065642894 0.95688475233 -0.28359453774 0.060744307768 0.95275721934 -0.29758045965 0.061519417792 0.95174757462 -0.30064119977 
0.059330563152 0.95700442169 -0.2822903706 0.055352083996 0.96604493983 -0.2510113612 0.055273848784 0.97737132228 -0.18957074949 
0.057721560216 0.99017811758 -0.10859633444 0.074625837202 0.98983712695 0.00066133860797 0.10153945451 0.9803929601 0.12950158497 
0.14087139771 0.94741615159 0.25609686318 0.1893483917 0.89710953508 0.38103891148 0.23585160901 0.83726656649 0.4821353305 
0.28081518351 0.76998477455 0.56463098667 0.31811785606 0.70674254338 0.62762003081 0.34906350049 0.64685234591 0.67442245849 
0.37373064677 0.59441187563 0.7102921816 0.39283925101 0.54856687145 0.73648285464 0.40786084434 0.50977143936 0.75678347465 
0.41901907314 0.47763981787 0.77151635276 0.42770410601 0.45126820025 0.78296128301 0.43388930465 0.43071862631 0.79108285159 
0.43855977174 0.41474941511 0.79720774213 0.44159327563 0.40373018022 0.80117483217 0.44359715115 0.39642254858 0.80378040412 
0.44441043988 0.393406743 0.80481161631 0.44441906399 0.39329301399 0.80486159526 0.4434323326 0.39676910095 0.80369780654 
0.4416874379 0.40248140794 0.80178466254 0.43893827995 0.41115581239 0.79887892239 0.43527397385 0.42182092874 0.79526891113 
0.43031106554 0.43531088044 0.7906595338 0.42403325135 0.45095573122 0.78519501399 0.41575486573 0.46987916612 0.77842943251 
0.4056097804 0.49109207258 0.7705554214 0.39241839667 0.51604120581 0.76087254548 0.37682804038 0.54303744349 0.74980284805 
0.35703224871 0.57362228637 0.73630203144 0.33447792932 0.60560522282 0.7211332894 0.30672193978 0.64022450094 0.70281939213 
0.27621071996 0.6752487887 0.68263161528 0.24010346727 0.71109567457 0.65863788005 0.2016884617 0.74622597126 0.63275392585 
0.15821817484 0.77978653318 0.60272932524 0.11344549359 0.81153816511 0.57128114759 0.065589462001 0.83900725032 0.53646272609 
0.017723524709 0.86402622326 0.50121169214 -0.030167822604 0.88276019149 0.46485092488 -0.076822864859 0.89909841823 0.42930209662 
-0.12003251531 0.90876008238 0.39601601736 -0.16110479405 0.91669940957 0.3645337211 -0.19567922109 0.91940263758 0.33853512916 
-0.22767703404 0.92128724346 0.31472882772 -0.25109406921 0.92044563017 0.29822340913 -0.27175774298 0.91953173767 0.28380936887 
-0.28233226794 0.91835299227 0.27705877134 -0.29017403204 0.91750014605 0.27200627798 -0.28692288725 0.91797020003 0.27384678249 
-0.28100802476 0.91879176164 0.27698378524 -0.26303514575 0.9212045147 0.28598972713 -0.24251623679 0.92366469658 0.29600105377 
-0.20903858985 0.92636628076 0.31112956979 -0.17335784342 0.92856301839 0.32704167127 -0.12494125831 0.92784130221 0.3474835809 
-0.075137657844 0.92605290769 0.36844867122 -0.016116231439 0.91717558276 0.39289071549 0.042934356876 0.90713395619 0.41746730695 
0.10221089068 0.88807136051 0.44308636537 0.16038436672 0.86840898208 0.46849404577 0.20840350982 0.84322523022 0.4919558599 
0.25511381366 0.81809743611 0.51508810094 0.28715356026 0.79359686287 0.53452621321 0.31828845681 0.7694021205 0.55370790568 
0.3363385699 0.7496299127 0.56918158319 0.35379132867 0.73030871302 0.58433948523 0.36065069295 0.71898562602 0.59389747087 
0.36741876113 0.70779103164 0.60335294972 0.36832741744 0.70484313316 0.60622951102 0.36917509815 0.7020930541 0.60891304 
0.36917509815 0.7020930541 0.60891304 0.36917509815 0.7020930541 0.60891304 
FrenetTangent 3 128 double
-0.94355432991 0.054349320466 0.32672829365 -0.94355432991 0.054349320466 0.32672829365 -0.94445902716 0.025766363167 0.32761752172 
-0.94443255391 -0.019472522734 0.32812798109 -0.94162638023 -0.079714179253 0.32708624198 -0.93398911099 -0.15247699174 0.32313326591 
-0.91969820473 -0.23443714229 0.314951486 -0.89758048252 -0.32163139414 0.30150045391 -0.86739067019 -0.40987943464 0.28219191045 
-0.82984555028 -0.49531440111 0.25694358668 -0.78640538241 -0.57484398717 0.22609945805 -0.73890162195 -0.64639581114 0.19025469354 
-0.68914888837 -0.70891246938 0.1500563908 -0.63864566679 -0.76215888232 0.10604503941 -0.58840202513 -0.80644483172 0.058564410731 
-0.53888461778 -0.8423439865 0.0077444906603 -0.49004137525 -0.87046060089 -0.046452048953 -0.44137622357 -0.89125925563 -0.1041343772 
-0.39205723529 -0.90496002314 -0.16534352351 -0.34105601611 -0.91150141018 -0.22988252023 -0.28732950531 -0.91057965225 -0.29713036245 
-0.23003443343 -0.90178640659 -0.36587625821 -0.16876349427 -0.88484967655 -0.4342348822 -0.10375485789 -0.85995243047 -0.49971666651 
-0.035995137842 -0.82804822831 -0.55950020701 0.032852198357 -0.79103973798 -0.61088203935 0.10071655897 -0.7517085698 -0.65175946548 
0.16549489665 -0.71338621854 -0.6809490013 0.22538123875 -0.67948035109 -0.69821898406 0.27905126633 -0.65303474464 -0.70404262162 
0.32567081027 -0.63644673694 -0.69919530489 0.36476451461 -0.63137502297 -0.68433356578 0.39603211624 -0.63877132536 -0.65964365896 
0.41915106401 -0.65896245744 -0.62456454048 0.43357418956 -0.6917081043 -0.57754075232 0.43831024576 -0.73613045906 -0.51574807388 
0.43162686047 -0.79036701672 -0.43476227091 0.41065779202 -0.85064231307 -0.32828011372 0.37105341963 -0.909285668 -0.18846467507 
0.30735341497 -0.95155657599 -0.0086000574964 0.21592376447 -0.95374207018 0.20917215757 0.10186514512 -0.89093648879 0.4425558328 
-0.016260175916 -0.75913018746 0.65073571069 -0.11573146009 -0.58672250305 0.80147547284 -0.18483243239 -0.41230638071 0.89209888486 
-0.22454880305 -0.25994666855 0.9391515131 -0.24102216309 -0.13726907718 0.96076298708 -0.24023138744 -0.04357746648 0.96973701843 
-0.22649189327 0.024191032269 0.97371259427 -0.20260428448 0.068980320162 0.97682814217 -0.17033669508 0.092930764263 0.9809940282 
-0.13086545521 0.097394334082 0.98660456938 -0.085141665303 0.083182170467 0.99289053946 -0.034193910983 0.050912366058 0.99811758197 
0.020604692665 0.0014520334037 0.99978664636 0.077344498769 -0.063616121893 0.99497277226 0.13354345404 -0.14160514089 0.98087416622 
0.18634080716 -0.22859546081 0.95552143821 0.23294207105 -0.31974749882 0.91842230402 0.27115926568 -0.4100290088 0.87083228269 
0.29983504503 -0.49508284965 0.81547036595 0.31894977945 -0.57184410736 0.75582098084 0.32942019171 -0.63872344716 0.69535220956 
0.33274913984 -0.69539719876 0.63694642309 0.33067338083 -0.74240105159 0.58266267584 0.3249064581 -0.78074039342 0.53374172739 
0.31699913505 -0.81158739172 0.49075192713 0.30828055857 -0.83609344972 0.4537739972 0.29984876065 -0.8552971129 0.42256072865 
0.29258519783 -0.87008165569 0.39667595648 0.28717604577 -0.88117309933 0.3755847278 0.28414129424 -0.88914607211 0.35872411036 
0.28385264164 -0.89443882721 0.34555298033 0.28655614176 -0.89736980424 0.33557862278 0.29239452764 -0.8981489111 0.32838083637 
0.30141970033 -0.89689346258 0.32361749186 0.31360507886 -0.89363932221 0.32103055355 0.32885810143 -0.8883514885 0.32044341467 
0.34702951605 -0.88093346903 0.32175571188 0.36791638304 -0.87123907472 0.3249307769 0.39126746777 -0.85908291332 0.32997926708 
0.41678434604 -0.84425059206 0.33694472352 0.44412178902 -0.82651366871 0.34587713419 0.47289258412 -0.80563960333 0.35681568552 
0.5026716029 -0.78140557878 0.36976557585 0.53299738138 -0.75362293555 0.38466383045 0.56338863968 -0.72214885473 0.40136550959 
0.5933608543 -0.68690340968 0.4196267417 0.62243513987 -0.64790405784 0.43908407907 0.65016824621 -0.60527838039 0.45925954955 
0.6761793014 -0.55927927757 0.47957089365 0.70016515783 -0.51031099603 0.49935101792 0.72192496127 -0.45893042555 0.51788726071 
0.74137474434 -0.40583440632 0.53447350084 0.7585478038 -0.35185668858 0.54845428256 0.77359223447 -0.29793192411 0.55927776941 
0.78675124114 -0.24504572985 0.56654662196 0.79833349453 -0.1942074712 0.57004130521 0.80868180361 -0.14641023401 0.56973483648 
0.81814454001 -0.10258559161 0.56578768813 0.82704108073 -0.063596931972 0.55853243508 0.83563818343 -0.030214925862 0.54844861624 
0.84413452293 -0.0031014067156 0.5361224566 0.85264297339 0.017174000078 0.52221165599 0.86117748813 0.030155522619 0.50740908386 
0.86964592312 0.035496417429 0.49239818516 0.87783372136 0.032967262751 0.47782959015 0.88539399157 0.022464693693 0.46429819861 
0.8918454093 0.0040162695912 0.45232249059 0.89656587274 -0.022174141981 0.44235499689 0.89880886073 -0.055711433394 0.4347860026 
0.89773877174 -0.095982200925 0.42994478113 0.89247482434 -0.1421233629 0.42812339066 0.88215326127 -0.19304772008 0.42957909795 
0.86600390109 -0.24744299951 0.43452181222 0.84342358502 -0.30382331822 0.44308920946 0.81404147229 -0.36060601175 0.45530186215 
0.77780637196 -0.41614965598 0.4709954475 0.73508302473 -0.46883641819 0.48974009405 0.68675309354 -0.5171550015 0.51080416299 
0.63432759986 -0.55980421323 0.53314889 0.58000774165 -0.59582793167 0.55549986091 0.52660795282 -0.62475999173 0.5765058688 
0.4773326037 -0.64668479305 0.59493895811 0.43542626984 -0.66218930265 0.6098436611 0.4037702574 -0.67217396554 0.62060594526 
0.38455148254 -0.67755910448 0.62692409207 0.38455148254 -0.67755910448 0.62692409207 
FrenetNormal 3 128 double
-0.043766194435 -0.99825420421 0.039661870859 -0.043766194435 -0.99825420421 0.039661870859 -0.01884387276 -0.99952740791 0.024287224966 
0.020583889232 -0.99978812559 -8.6252710941e-05 0.072930410171 -0.99679179908 -0.032973695093 0.13583040289 -0.98799457071 -0.073599116113 
0.20609919776 -0.97102651843 -0.12095710477 0.27994963172 -0.94415613789 -0.17377396522 0.35332142324 -0.90658922942 -0.23078115386 
0.42236921221 -0.85850052751 -0.29082828755 0.48384321404 -0.80077876859 -0.35305680564 0.53531274444 -0.73461803339 -0.41686521881 
0.57521403592 -0.66113780323 -0.48169037567 0.60290369701 -0.58123851257 -0.54650610576 0.61875571747 -0.49571660886 -0.60943121499 
0.62443341878 -0.40561461488 -0.66750257655 0.62305578145 -0.31249556968 -0.71704115093 0.61886253588 -0.21831640618 -0.75455093167 
0.61634350075 -0.12496409237 -0.77749898051 0.61896216427 -0.033694383464 -0.78469773016 0.62842797556 0.054894683592 -0.77592838152 
0.64471674378 0.14040818097 -0.75141590548 0.6665464513 0.22209181083 -0.71161159056 0.69219819297 0.29835381436 -0.65715041132 
0.72028908899 0.36659412878 -0.5888907989 0.75032682967 0.42329089728 -0.50777402943 0.78328016848 0.46383258869 -0.41392210298 
0.82135629376 0.48188556711 -0.30522145879 0.86679026566 0.46705921982 -0.17472927784 0.91667416963 0.39956889986 -0.0072911589149 
0.94494518104 0.24404345337 0.21799403133 0.87211852539 -0.025751447489 0.48861655787 0.63932106849 -0.32383792724 0.69742208759 
0.36127105032 -0.51005232396 0.78059583334 0.14463743094 -0.57918602781 0.80226152766 -0.0084833811911 -0.57716588879 0.81658286111 
-0.12164011281 -0.52856569447 0.84013212626 -0.21236142072 -0.43936850693 0.87284474113 -0.2903436158 -0.30637855443 0.9065499248 
-0.35832284316 -0.12410138805 0.9253126961 -0.41087567586 0.1055835435 0.90555689735 -0.43538470444 0.36007251039 0.82509874948 
-0.42070932754 0.59560020699 0.68429822092 -0.36815082127 0.77476462826 0.51400850537 -0.2881002214 0.8905906742 0.3519183335 
-0.18771856998 0.95725098924 0.22007335615 -0.064294256935 0.99003069155 0.12532149984 0.097026896635 0.99291099808 0.068655161625 
0.32441886043 0.94448330118 0.051997084349 0.63725493436 0.76669234294 0.078032044157 0.92455615923 0.35943982929 0.12648682761 
0.98318252781 -0.11511659793 0.14177547702 0.89518407187 -0.43116402311 0.1128851746 0.7898430802 -0.61054115064 0.058201478041 
0.69766730333 -0.71629772596 -0.013337977849 0.61662826018 -0.78114621976 -0.097878353617 0.54075246764 -0.81900961014 -0.19185939443 
0.46564325804 -0.83584016092 -0.29077066844 0.38909188317 -0.83487503877 -0.38934711516 0.31063583571 -0.81903981663 -0.48236827875 
0.23127091863 -0.79157848741 -0.56561228811 0.15247021445 -0.75612641429 -0.63641627832 0.075950133447 -0.71614647522 -0.69380530645 
0.0033735489076 -0.67455374924 -0.73821802915 -0.063672101217 -0.63353728044 -0.77108778866 -0.12361157712 -0.59457616313 -0.79448056253 
-0.17434531914 -0.55848573921 -0.81098544302 -0.21327368958 -0.52560862084 -0.82355929418 -0.23613507045 -0.49570018047 -0.83577602238 
-0.23635863549 -0.46776102497 -0.85166555581 -0.20122251948 -0.43884809468 -0.87574074214 -0.10599835254 -0.40098370889 -0.90993209332 
0.095107248876 -0.33233619831 -0.93835348483 0.43946274359 -0.18812886599 -0.87833935741 0.78245121809 0.027271648687 -0.62211441752 
0.92775837605 0.1975566223 -0.31660034215 0.94955238681 0.29461987163 -0.10746811596 0.93512737685 0.35369732175 0.02085650137 
0.91174477001 0.39728098986 0.10435175832 0.88547994521 0.43493545823 0.16357387874 0.85706124848 0.47076145005 0.20935537612 
0.82610164959 0.50644914699 0.24711399406 0.79226004352 0.5425570681 0.27920575082 0.75515576476 0.57922302795 0.30698608249 
0.71488065595 0.61624273548 0.33043991696 0.6717375578 0.65332175014 0.34919814467 0.62618343591 0.69014245197 0.36276397365 
0.57892712084 0.72638032012 0.37042545714 0.53083318644 0.76171968907 0.37148249415 0.48279636003 0.79585613887 0.36540481792 
0.43584185366 0.82848005302 0.35165704933 0.39088851348 0.85924133216 0.33001591345 0.34896365212 0.88774172091 0.30023158804 
0.3108658806 0.9135049013 0.26243322879 0.27762987097 0.93597759843 0.21648923757 0.25001418677 0.95448432814 0.16264247213 
0.22884031154 0.96821128707 0.10099017476 0.21491672532 0.97612205808 0.031567845983 0.20915687964 0.97680624406 -0.045858055733 
0.21271983365 0.96814803152 -0.1320593103 0.22712791766 0.94667271121 -0.22852502461 0.25452781279 0.90611610863 -0.33788931648 
0.29802411829 0.83396384692 -0.46441998983 0.36025734945 0.704574779 -0.61138287755 0.43561860375 0.47061874509 -0.76730334864 
0.48837028451 0.083980079154 -0.86858609908 0.45466375586 -0.37109625351 -0.8096718099 0.34468474566 -0.70188578798 -0.62333680041 
0.22330707584 -0.87352391495 -0.43253892298 0.11551389206 -0.95247387329 -0.28186887279 0.019912388499 -0.98567711374 -0.16746379979 
-0.068794470403 -0.99454703018 -0.078380645602 -0.15476061176 -0.98793753126 -0.0053467167076 -0.23993428581 -0.9691019779 0.057209220549 
-0.3249935065 -0.9389379473 0.11302544784 -0.40927856036 -0.89762850671 0.16356687921 -0.49154685458 -0.84531508815 0.2093420443 
-0.56988260779 -0.78300062037 0.249286666 -0.64237058728 -0.71264706708 0.28194713401 -0.70744210022 -0.63699348729 0.30621066601 
-0.76393233385 -0.55960456208 0.32132557228 -0.81127937033 -0.48410845978 0.32781821555 -0.84940719052 -0.41423053471 0.32698698569 
-0.8787204438 -0.3528205902 0.32150896221 -0.89993666963 -0.30306330511 0.31347507676 -0.91398070144 -0.26663458553 0.30585172092 
-0.92176300124 -0.24526345721 0.30033116072 -0.92176300124 -0.24526345721 0.30033116072 
FrenetBinormal 3 128 double
0.32831348851 0.023123475954 0.94428573966 0.32831348851 0.023123475954 0.94428573966 0.32808848573 0.016764705971 0.94449822137 
0.32806013872 0.0066726901487 0.94463327307 0.32866535463 -0.0071943673648 0.94441904139 0.33047608416 -0.024849451331 0.94348718198 
0.3341830829 -0.046332783505 0.94136865269 0.34055466683 -0.07157117852 0.93749671216 0.35042459551 -0.10047297228 0.9311862245 
0.36463764378 -0.13281750003 0.92162839606 0.38400822745 -0.16824908377 0.90787109606 0.40922446006 -0.20617662417 0.88883437205 
0.44068426627 -0.24564184476 0.86339878478 0.47816194372 -0.28508881001 0.83071386529 0.5205040047 -0.3223534971 0.790673007 
0.56540805993 -0.35487095205 0.74456721198 0.6096400116 -0.38032204937 0.69548126863 0.6497662587 -0.39748570546 0.64792663397 
0.68294349205 -0.40673250685 0.60675930527 0.70750733782 -0.40991446396 0.57567655778 0.72285547305 -0.40967215017 0.55646086517 
0.72898866913 -0.40873808191 0.54909807929 0.72610929704 -0.40953177835 0.55231242179 0.71421046696 -0.4140855211 0.56430186081 
0.69273947364 -0.42419909987 0.58323849781 0.66025024176 -0.44167969075 0.60744437526 0.61345607212 -0.46882145403 0.63551403747 
0.54588027797 -0.50878915417 0.66569386261 0.44483472501 -0.5658287176 0.69423333956 0.28607491587 -0.64334307843 0.71012028977 