# vtk DataFile Version 4.2
vtk output
ASCII
DATASET POLYDATA
POINTS 128 float
0 0 0 -0.292302 0.136338 0.0874219 -0.869337 0.403421 0.260409 
-1.35756 0.622837 0.40764 -1.76903 0.790561 0.532045 -2.21307 0.946164 0.665439 
-2.68861 1.0775 0.807221 -3.16806 1.16019 0.949179 -3.64706 1.18149 1.09078 
-4.12619 1.13383 1.23333 -4.59557 1.01797 1.37567 -5.04384 0.838889 1.51617 
-5.46959 0.610182 1.65471 -5.87536 0.347659 1.79142 -6.26725 0.0635146 1.92484 
-6.65252 -0.231936 2.05237 -7.03811 -0.532031 2.16781 -7.42981 -0.832498 2.26195 
-7.82694 -1.13565 2.31458 -8.22402 -1.44633 2.30269 -8.60051 -1.7686 2.214 
-8.93163 -2.1058 2.04402 -9.20822 -2.45831 1.81223 -9.42857 -2.8254 1.54725 
-9.59565 -3.20754 1.26698 -9.71396 -3.60546 0.983669 -9.78326 -4.01743 0.704075 
-9.80105 -4.44011 0.432004 -9.76495 -4.86696 0.168857 -9.67285 -5.28969 -0.0857239 
-9.52412 -5.69922 -0.336992 -9.31955 -6.08602 -0.591484 -9.06609 -6.44031 -0.842494 
-8.77228 -6.75307 -1.07911 -8.42722 -7.02433 -1.32496 -8.01325 -7.25667 -1.60765 
-7.5654 -7.42082 -1.77296 -7.15397 -7.47394 -1.58304 -6.88028 -7.43999 -1.11325 
-6.83713 -7.37759 -0.606092 -6.93998 -7.30007 -0.119101 -7.04967 -7.20252 0.362739 
-7.14274 -7.07987 0.840043 -7.24406 -6.92775 1.30745 -7.35303 -6.74759 1.76367 
-7.45805 -6.5446 2.21004 -7.55803 -6.33242 2.65396 -7.65711 -6.13119 3.10567 
-7.75883 -5.9813 3.57427 -7.86571 -5.93118 4.0652 -7.97433 -6.00317 4.55469 
-8.07825 -6.20213 5.00482 -8.17407 -6.50509 5.39871 -8.26028 -6.87495 5.73193 
-8.33675 -7.29107 6.00368 -8.40404 -7.7427 6.21486 -8.46209 -8.22037 6.36236 
-8.51042 -8.71521 6.44092 -8.54843 -9.21705 6.44922 -8.57554 -9.71528 6.38924 
-8.59133 -10.204 6.2717 -8.59542 -10.6808 6.11332 -8.58638 -11.1489 5.93217 
-8.56185 -11.6152 5.74729 -8.51719 -12.0861 5.57851 -8.44597 -12.5666 5.44631 
-8.34106 -13.0532 5.37115 -8.19509 -13.5349 5.37264 -8.00569 -13.9951 5.45634 
-7.77473 -14.4136 5.61581 -7.50593 -14.7774 5.83807 -7.20444 -15.0803 6.10491 
-6.8749 -15.3193 6.40086 -6.52151 -15.4946 6.71305 -6.14826 -15.6085 7.03038 
-5.759 -15.6661 7.34336 -5.35669 -15.674 7.64452 -4.94338 -15.641 7.92838 
-4.52031 -15.5765 8.19137 -4.08787 -15.4904 8.43186 -3.64674 -15.3909 8.65018 
-3.19793 -15.2848 8.84868 -2.74317 -15.1759 9.03139 -2.2849 -15.0654 9.20409 
-1.82581 -14.9529 9.37315 -1.36883 -14.8368 9.54555 -0.917138 -14.716 9.72846 
-0.474233 -14.5907 9.92921 -0.0440049 -14.4634 10.155 0.369176 -14.34 10.4128 
0.761086 -14.2289 10.7073 1.12779 -14.1415 11.0397 1.46685 -14.0884 11.4073 
1.77805 -14.0782 11.8021 2.06233 -14.117 12.215 2.32213 -14.2069 12.6361 
2.55911 -14.3493 13.0561 2.7734 -14.5456 13.4667 2.9631 -14.7965 13.8595 
3.12293 -15.1018 14.2258 3.24774 -15.4576 14.559 3.33313 -15.8538 14.857 
3.37661 -16.2791 15.1214 3.37906 -16.7215 15.3602 3.34163 -17.1707 15.5822 
3.26521 -17.6191 15.7954 3.15029 -18.0603 16.0066 2.99673 -18.4893 16.2181 
2.80482 -18.9026 16.4298 2.57609 -19.299 16.6371 2.31328 -19.6795 16.8332 
2.0217 -20.0495 17.008 1.70886 -20.4162 17.1501 1.38692 -20.7899 17.2464 
1.07057 -21.1794 17.2866 0.779351 -21.5888 17.268 0.530653 -22.0195 17.1934 
0.33359 -22.4682 17.077 0.192994 -22.9301 16.9344 0.105316 -23.3992 16.7792 
0.0651482 -23.8722 16.6231 0.0661085 -24.3558 16.4742 0.100476 -24.849 16.3383 
0.156699 -25.3198 16.2165 0.226954 -25.765 16.1118 0.31939 -26.3062 16.0359 
0.426562 -26.955 15.9972 0.480154 -27.2853 15.9869 
LINES 1 129
128 0 1 2 3 4 5 6 7 8 9 10 11 12 13 14 15 16 17 18 19 20 21 22 23 24 25 26 27 28 29 30 31 32 33 34 35 36 37 38 39 40 41 42 43 44 45 46 47 48 49 50 51 52 53 54 55 56 57 58 59 60 61 62 63 64 65 66 67 68 69 70 71 72 73 74 75 76 77 78 79 80 81 82 83 84 85 86 87 88 89 90 91 92 93 94 95 96 97 98 99 100 101 102 103 104 105 106 107 108 109 110 111 112 113 114 115 116 117 118 119 120 121 122 123 124 125 126 127 

CELL_DATA 1
FIELD FieldData 2
Length 1 1 double
55.632257749 
Tortuosity 1 1 double
0.75898343291 
POINT_DATA 128
SCALARS MaximumInscribedSphereRadius float
LOOKUP_TABLE default
1.55 1.46365 1.3773 1.33229 1.29076 1.38298 1.48111 1.57422 1.667 
1.74481 1.8213 1.84927 1.87198 1.85931 1.84196 1.78207 1.7154 1.60711 
1.49098 1.45091 1.42737 1.5451 1.69673 1.62937 1.50387 1.4224 1.354 
1.43027 1.55421 1.72522 1.91336 2.11068 2.31168 2.17052 1.87999 1.65296 
1.45523 1.45039 1.53649 1.69275 1.86207 2.08793 2.3277 2.34682 2.30332 
2.24894 2.1911 2.16369 2.1471 2.06988 1.969 1.95931 1.98629 2.04908 
2.12718 2.15803 2.167 2.09667 1.9866 1.78765 1.54064 1.42143 1.37717 
1.42363 1.52823 1.67699 1.85656 2.02426 2.18309 2.30762 2.40504 2.41497 
2.35123 2.29699 2.25131 2.2723 2.35793 2.40081 2.39892 2.35793 2.27254 
2.21568 2.19404 2.18353 2.18797 2.18824 2.18239 2.1921 2.22672 2.28393 
2.3806 2.42205 2.35869 2.29344 2.22427 2.17702 2.17904 2.20136 2.2736 
2.35367 2.45477 2.55181 2.63687 2.67397 2.55478 2.40432 2.1397 1.95146 
2.07829 2.20414 2.3254 2.41374 2.32283 2.28347 2.57307 2.86956 3.21765 
3.51917 3.40457 3.29127 3.19262 3.1 3.1 3.09487 2.97229 2.84513 
2.66256 2.48 
TEXTURE_COORDINATES TCoords 2 float
0 0 0.00787402 0 0.015748 0 0.023622 0 0.0314961 
0 0.0393701 0 0.0472441 0 0.0551181 0 0.0629921 0 
0.0708661 0 0.0787402 0 0.0866142 0 0.0944882 0 0.102362 
0 0.110236 0 0.11811 0 0.125984 0 0.133858 0 
0.141732 0 0.149606 0 0.15748 0 0.165354 0 0.173228 
0 0.181102 0 0.188976 0 0.19685 0 0.204724 0 
0.212598 0 0.220472 0 0.228346 0 0.23622 0 0.244094 
0 0.251969 0 0.259843 0 0.267717 0 0.275591 0 
0.283465 0 0.291339 0 0.299213 0 0.307087 0 0.314961 
0 0.322835 0 0.330709 0 0.338583 0 0.346457 0 
0.354331 0 0.362205 0 0.370079 0 0.377953 0 0.385827 
0 0.393701 0 0.401575 0 0.409449 0 0.417323 0 
0.425197 0 0.433071 0 0.440945 0 0.448819 0 0.456693 
0 0.464567 0 0.472441 0 0.480315 0 0.488189 0 
0.496063 0 0.503937 0 0.511811 0 0.519685 0 0.527559 
0 0.535433 0 0.543307 0 0.551181 0 0.559055 0 
0.566929 0 0.574803 0 0.582677 0 0.590551 0 0.598425 
0 0.606299 0 0.614173 0 0.622047 0 0.629921 0 
0.637795 0 0.645669 0 0.653543 0 0.661417 0 0.669291 
0 0.677165 0 0.685039 0 0.692913 0 0.700787 0 
0.708661 0 0.716535 0 0.724409 0 0.732283 0 0.740157 
0 0.748031 0 0.755906 0 0.76378 0 0.771654 0 
0.779528 0 0.787402 0 0.795276 0 0.80315 0 0.811024 
0 0.818898 0 0.826772 0 0.834646 0 0.84252 0 
0.850394 0 0.858268 0 0.866142 0 0.874016 0 0.88189 
0 0.889764 0 0.897638 0 0.905512 0 0.913386 0 
0.92126 0 0.929134 0 0.937008 0 0.944882 0 0.952756 
0 0.96063 0 0.968504 0 0.976378 0 0.984252 0 
0.992126 0 1 0 
FIELD FieldData 7
Curvature 1 128 double
0 0.027904432499 0.052974965667 0.077833721922 0.10200770987 0.12461331056 0.14435985584 0.1597571352 0.16954590988 
0.17324459005 0.1715518194 0.16638360631 0.1604894959 0.15677673097 0.1574990158 0.16361310294 0.17457727636 0.18878380159 
0.20412626085 0.21852422799 0.23037347977 0.23879984992 0.24379167459 0.24597777955 0.24631098238 0.24581166364 0.24544617526 
0.2463893957 0.25035073439 0.26020701518 0.28109264855 0.32225829711 0.4000369579 0.54179601443 0.78373509683 1.1316434065 
1.4407619295 1.4255813839 1.0863082974 0.71104664111 0.44474089484 0.27975341828 0.18029110255 0.12418776 0.10535205714 
0.11995961934 0.15604095054 0.20414328371 0.25902918177 0.31531310521 0.36552701742 0.40104569854 0.41530933666 0.40685835595 
0.37953261699 0.33984092546 0.29402361943 0.24667686033 0.20084925034 0.15896142865 0.12421864751 0.10260191635 0.10188086516 
0.12250946811 0.15653326093 0.19656322397 0.23718850587 0.27343851538 0.30044332587 0.31453546648 0.31448183248 0.30184880492 
0.28015397146 0.25336372869 0.22475726563 0.19647466438 0.16963770207 0.14452512442 0.12106209334 0.098908548836 0.077713669156 
0.057430908328 0.038844305906 0.026066946712 0.029134013628 0.045365491775 0.06577048026 0.087424260692 0.10933935402 0.13102093438 
0.15215997396 0.17246702851 0.19168132588 0.20935292436 0.22490796309 0.23750941494 0.2462405283 0.2503146283 0.24934285841 
0.24360703817 0.23404261366 0.22202540133 0.20899987714 0.19604056877 0.18366623083 0.17188565591 0.16040845935 0.14911983883 
0.13836639773 0.12921505194 0.12315304046 0.12159726623 0.12481007401 0.13152254577 0.13941714894 0.14591256783 0.14905748629 
0.14778881019 0.14203826727 0.13241200864 0.11991386742 0.10543007298 0.089596147278 0.072733375051 0.054970023692 0.03641084487 
0.017271972698 0 
Torsion 1 128 double
0 0 -0.0012061088691 -0.0030644977271 -0.0065678674189 -0.012483212501 -0.021779736483 -0.035787311313 -0.056132124408 
-0.084524846922 -0.12195060242 -0.16665302903 -0.21093277021 -0.23953044794 -0.23594365969 -0.19592778241 -0.13191602715 -0.061560175385 
0.0030161963297 0.056897284671 0.098982795547 0.12936797145 0.14847625832 0.1573883931 0.15876025264 0.15727158307 0.15942993037 
0.1725277359 0.2032116806 0.25576012642 0.32817455574 0.40662160826 0.46437719083 0.47462687444 0.42982346795 0.34996115745 
0.27520811886 0.23352020201 0.22068618453 0.22696721725 0.26553839864 0.37282356384 0.60862232886 0.99841985625 1.1728952224 
0.79977640407 0.4253145584 0.22170964109 0.11839391574 0.06413224937 0.035059549174 0.020348636171 0.015133687784 0.017808750508 
0.028477539265 0.048416643668 0.081018624219 0.13321735581 0.21967471854 0.36969607176 0.62366904755 0.92767229228 0.93892358103 
0.63080343922 0.35650682399 0.18845487098 0.086465102939 0.019339675643 -0.029086053658 -0.066734450231 -0.097348328749 -0.12236824554 
-0.1420478269 -0.1559377262 -0.16323102311 -0.1630175722 -0.15383285653 -0.13394895949 -0.10022802686 -0.045883341307 0.046090026651 
0.2248346345 0.65815036306 1.6195553134 1.3467673675 0.58595344357 0.3175812355 0.22431993932 0.18967145256 0.17685717385 
0.17072128945 0.16469282827 0.15505440465 0.13961187089 0.11794237587 0.090697905113 0.059010718222 0.024522775173 -0.01073066455 
-0.044685947722 -0.074522748618 -0.096271932791 -0.10538958507 -0.097314612106 -0.068650420339 -0.018911488841 0.050786703819 0.13869217839 
0.24146156342 0.34951779247 0.4419290715 0.4908396269 0.48470264421 0.44145358895 0.38831988682 0.3426073777 0.30900214727 
0.28608487784 0.27027997967 0.25730519777 0.24302870877 0.22437231111 0.1991580997 0.16756839772 0.13039874959 0.092258382552 
0 0 
Abscissas 1 128 double
0 0.50199946305 1.0039989261 1.5059977349 2.0079964886 2.5099975397 3.0119986924 3.5139999894 4.0160012959 
4.5179987217 5.0199958076 5.5219947408 6.0239938741 6.5259939544 7.0279941601 7.5299939051 8.0319935765 8.5339911492 
9.0359883263 9.5379874255 10.039986942 10.54198729 11.043987837 11.545989867 12.047992291 12.549991274 13.051989237 
13.553989223 14.055989875 14.557988388 15.059986121 15.561982898 16.063979293 16.565980366 17.067983481 17.569984516 
18.07198459 18.573982345 19.075979005 19.577978584 20.079978707 20.581978928 21.083979173 21.585976241 22.087972408 
22.589971989 23.091972654 23.593974005 24.095975599 24.597973546 25.09997007 25.601969267 26.103969538 26.605970116 
27.107970825 27.609968288 28.111964248 28.613963939 29.115965499 29.617980066 30.120001668 30.622007733 31.124004686 
31.626005659 32.128009209 32.630005755 33.131997414 33.63398278 34.13596344 34.637948974 35.139938358 35.641937366 
36.143944473 36.64595003 37.147954191 37.649955817 38.151954987 38.653951517 39.155945283 39.657942412 40.15994336 
40.661945775 41.163950001 41.66594984 42.167943783 42.669941191 43.171943681 43.673944001 44.175940845 44.677943844 
45.179957587 45.681969259 46.183976997 46.685976259 47.187958034 47.68994311 48.19193561 48.69392734 49.195917176 
49.697911083 50.199915922 50.70191284 51.203886483 51.705873536 52.207904295 52.709926998 53.21192029 53.713911285 
54.215892807 54.717877898 55.219879791 55.721880996 56.22387846 56.725875481 57.22786967 57.729866473 58.231882832 
58.733895263 59.23587261 59.737853598 60.239875503 60.74189592 61.243893459 61.745891561 62.247902567 62.749912409 
63.251908181 63.753903953 
ParallelTransportNormals 3 128 double
0.28699599222 0 0.95793178277 0.28785298291 -0.00038197415787 0.95767400186 0.28870997359 -0.00076394831574 0.95741622095 
0.28774526701 -0.00041530697089 0.95770612193 0.28662680037 -4.9981416623e-06 0.9580422499 0.28522982529 0.00028457464359 0.95845792115 
0.2838205379 0.00056880992878 0.95887710885 0.28571825982 0.0006700167681 0.95831084974 0.28783170933 0.00075928403262 0.95768030655 
0.29474642585 0.0029719531332 0.95553669026 0.30208186295 0.0053706895499 0.95326048793 0.30761805599 0.0084154043604 0.95145082328 
0.31295934653 0.011530094564 0.94969169617 0.30617234246 0.0064559439483 0.95189312159 0.29778047497 0.00029821385341 0.95461862284 
0.26075413236 -0.028146841712 0.96351737661 0.21916139916 -0.060146096647 0.97340058993 0.13171043403 -0.1297912689 0.97509481317 
0.035619063519 -0.20652951849 0.97524610309 -0.058249149269 -0.29596489267 0.94376157507 -0.15163416405 -0.3881599565 0.90540107771 
-0.19392031995 -0.44300654616 0.87308444517 -0.22394723277 -0.48889277871 0.84221780996 -0.23273437952 -0.50592180757 0.83050607659 
-0.2358831717 -0.51529034028 0.8238792452 -0.23675978016 -0.51964482619 0.82091577992 -0.23696251231 -0.52251226365 0.81903878294 
-0.23424915002 -0.53776960576 0.80958377817 -0.23057491443 -0.55710950718 0.7976317674 -0.21504791146 -0.5919244028 0.77512128568 
-0.19521193967 -0.63236509577 0.74877236518 -0.1620810802 -0.67424593345 0.71767036065 -0.12364348415 -0.71670161379 0.68467113325 
-0.090891643501 -0.7419380914 0.66324530232 -0.060621890313 -0.75965761404 0.64687177849 -0.23554435182 -0.72499493617 0.58676019216 
-0.50511380786 -0.6661704359 0.50647397997 -0.64022715658 -0.66317766668 0.31220590575 -0.71195266734 -0.68650614675 0.064202349032 
-0.72273887465 -0.69075268612 0.022258601954 -0.72218208565 -0.69144738997 0.018669997247 -0.72760460454 -0.68382093275 0.043242357463 
-0.73449757221 -0.67414811141 0.074740144058 -0.74074463981 -0.66333672526 0.10224503987 -0.7468084082 -0.65220222714 0.12861679791 
-0.74298715197 -0.65913395638 0.11124885879 -0.73602611391 -0.67180406405 0.079987873252 -0.71118439243 -0.68763516091 -0.033081270609 
-0.67999271377 -0.70458881809 -0.1752029003 -0.64375631995 -0.66579404264 -0.3346436072 -0.60555128378 -0.6052440797 -0.50084288567 
-0.57799547032 -0.52306689622 -0.61355898808 -0.55472044231 -0.43219598049 -0.70477586862 -0.53724966804 -0.3380772698 -0.76571725294 
-0.52225980151 -0.2425703566 -0.81371800506 -0.5099884672 -0.13855884382 -0.84239079154 -0.49897503074 -0.030612149656 -0.86212029384 
-0.49150112441 0.071430497977 -0.86277885547 -0.48580058974 0.17051510643 -0.85388251447 -0.48348546924 0.23634445539 -0.8415272548 
-0.48300124787 0.2841887004 -0.82730134331 -0.48205503644 0.28768445833 -0.82725744398 -0.48083783468 0.26516664517 -0.8355323128 
-0.47076496157 0.19357227229 -0.85496135502 -0.45501728128 0.090529124583 -0.88153810868 -0.41824220199 -0.05078573735 -0.89248372689 
-0.36679609766 -0.21880315423 -0.89252334672 -0.29740205865 -0.37708692554 -0.86168015592 -0.21459118755 -0.52809438954 -0.8077507721 
-0.12942101233 -0.64441388463 -0.74218241782 -0.042386082203 -0.73331658325 -0.66741481395 0.039943842425 -0.79562470737 -0.59621471377 
0.11831332928 -0.83554685186 -0.52801755938 0.1874064072 -0.8596098346 -0.47026196375 0.24813680036 -0.86937577945 -0.42191943571 
0.29566245158 -0.87301243181 -0.3861005777 0.33038331366 -0.8707054392 -0.36242606561 0.35178466076 -0.86883997193 -0.34829420883 
0.35923472951 -0.86743697217 -0.34415762891 0.35975533658 -0.867489326 -0.34349548299 0.35240539252 -0.86919468486 -0.34677963356 
0.34744279289 -0.87035587968 -0.34894224754 0.34542710709 -0.87084536389 -0.34972044806 0.35015117432 -0.86961151798 -0.34786837128 
0.36393519663 -0.86606107482 -0.34248052783 0.38199483358 -0.86116897573 -0.33460807513 0.40632504646 -0.85430921679 -0.32309171803 
0.42820319976 -0.84811291331 -0.31151476377 0.44615670549 -0.84297850448 -0.29984082064 0.4559635629 -0.84005336932 -0.29391348169 
0.45154813473 -0.84098514808 -0.29801847051 0.43983322976 -0.84155631937 -0.3119856331 0.41425935495 -0.84144283224 -0.34467736637 
0.38568929151 -0.83690263831 -0.38511012963 0.35093785246 -0.82322979587 -0.44151325399 0.315664443 -0.80252312552 -0.50228161784 
0.27921733351 -0.76600022517 -0.57286563722 0.24492965675 -0.72239197002 -0.64303062707 0.21594954063 -0.66136897922 -0.7121657054 
0.19184512605 -0.60090281652 -0.77428581649 0.18083342309 -0.54193190321 -0.81756865001 0.1727253936 -0.49167410631 -0.85326970649 
0.17314924861 -0.46701812155 -0.86669317338 0.17302227708 -0.45044414903 -0.8758495287 0.17110022715 -0.46020849598 -0.87109987347 
0.1677706859 -0.47254088047 -0.86504448182 0.15930268113 -0.49424864586 -0.85422211304 0.15173452441 -0.51296231571 -0.84488039064 
0.14787871732 -0.51932375645 -0.84164711841 0.14903847532 -0.51906341149 -0.84130039574 0.1738087963 -0.48763128725 -0.85454198439 
0.20506293622 -0.4483658462 -0.86811620527 0.27162380925 -0.36644516932 -0.88350172868 0.3390327857 -0.28023813752 -0.89546562161 
0.41185516708 -0.16667150059 -0.8855894055 0.48033755664 -0.055467754986 -0.87396451628 0.516342473 0.03805375913 -0.84925377653 
0.54951156956 0.12740807725 -0.82535723806 0.55734162947 0.17952704928 -0.80873587131 0.5645005989 0.22877635551 -0.79306407943 
0.56411931152 0.245782592 -0.78806154687 0.56383817285 0.26114994912 -0.78350165566 0.56509759388 0.25130688379 -0.78575079228 
0.56666909897 0.23965589287 -0.7881721519 0.57538411704 0.18662201411 -0.79453564541 0.58343316764 0.13764077622 -0.80041286573 
0.58343316764 0.13764077622 -0.80041286573 0.58343316764 0.13764077622 -0.80041286573 
FrenetTangent 3 128 double
-0.9176309461 0.28632440694 0.2756297893 -0.9176309461 0.28632440694 0.2756297893 -0.92283956261 0.26733297146 0.27730889646 
-0.93046560735 0.23656731317 0.27976715298 -0.93937158005 0.19419922728 0.2826087308 -0.94805910844 0.14076066793 0.28525490578 
-0.9548181729 0.077375636089 0.28694122681 -0.95798755933 0.0059316418347 0.28674841201 -0.95629563773 -0.0709232335 0.28366978727 
-0.94917103944 -0.15003822513 0.27669996183 -0.9368716966 -0.2282421022 0.264909356 -0.92033587363 -0.30288500941 0.24747232328 
-0.90079243542 -0.37222785687 0.22365019754 -0.87928211546 -0.4355498527 0.19276744342 -0.85625706684 -0.4929862673 0.15423480715 
-0.83135841987 -0.54520975933 0.10765452168 -0.80340135442 -0.59307351308 0.053010110394 -0.77055495609 -0.63730861432 -0.0090988877717 
-0.73068495349 -0.67832985484 -0.077253522788 -0.68181053262 -0.71616383438 -0.14914342066 -0.62256156652 -0.7505051089 -0.22171868981 
-0.55250251965 -0.78084908152 -0.29157448049 -0.4722132157 -0.8066355715 -0.35546270368 -0.38311182361 -0.82735224836 -0.41074759616 
-0.2871314354 -0.84258316674 -0.45564146642 -0.18637695321 -0.85203894492 -0.48917611107 -0.082866104503 -0.85560105317 -0.51095992655 
0.021646939467 -0.85339007881 -0.52082317863 0.12580281065 -0.84581955351 -0.51842351002 0.22872833819 -0.83357251226 -0.5028321928 
0.33009078802 -0.81744125761 -0.47204858016 0.43001845143 -0.7979477064 -0.42233113701 0.52862633434 -0.77459570802 -0.3472113013 
0.62454747475 -0.7444076933 -0.23621523647 0.71100955195 -0.69922326896 -0.074513335538 0.76786634746 -0.62258531808 0.15089332043 
0.75685826298 -0.49484459283 0.42695948134 0.65055946419 -0.32100823813 0.68827762902 0.48162264156 -0.14637473333 0.86406832403 
0.31169324845 -0.010927073992 0.95011994923 0.17229982119 0.079037932047 0.98186851305 0.066382920096 0.13278523046 0.98891930434 
-0.012451712169 0.15949056106 0.98712092258 -0.071135324327 0.16461912527 0.98378875234 -0.11512044169 0.15048242456 0.98188712376 
-0.14834852802 0.11733446868 0.98194976282 -0.17353231336 0.064316210831 0.98272578131 -0.1923632647 -0.0096631729521 0.98127620856 
-0.20563941082 -0.10489445026 0.97299002411 -0.21340419851 -0.21963491334 0.95195543641 -0.21520504302 -0.34896184432 0.91209233122 
-0.21052145664 -0.48445982347 0.84910505577 -0.19925265702 -0.61551684613 0.76252041992 -0.18200131156 -0.73205215855 0.65648698369 
-0.15994271169 -0.8272136139 0.53864270713 -0.13441020538 -0.89853290508 0.41781875877 -0.10649854866 -0.94733658699 0.30201233432 
-0.076838883429 -0.97730994214 0.19738556935 -0.045568548872 -0.99309012338 0.10814580067 -0.012386638025 -0.99924331091 0.036869727501 
0.023357941715 -0.99961368514 -0.015062769933 0.062568800895 -0.99693025585 -0.047066018866 0.10629033616 -0.99258079885 -0.059040005091 
0.15553916502 -0.98650067871 -0.051224789337 0.21108793555 -0.97716635552 -0.024244527446 0.27316777357 -0.96174506568 0.020634827899 
0.34112681347 -0.93651421281 0.08107790291 0.41318144367 -0.89765671568 0.15327594528 0.48644278647 -0.84238933059 0.23184829351 
0.55737058011 -0.7700822907 0.3103406225 0.62258291364 -0.68279825124 0.3823310918 0.67964746187 -0.58489626134 0.4426914174 
0.72747894499 -0.48188759448 0.48842474433 0.76622845418 -0.37916636098 0.51877435047 0.79685306095 -0.28114712659 0.53477237444 
0.8206451909 -0.19094436076 0.53859235211 0.83889166585 -0.11042544474 0.53297935619 0.85268216346 -0.040454318876 0.52086137906 
0.86284802933 0.018847332055 0.50511192459 0.86996969311 0.067866624522 0.48841258619 0.87440714512 0.10727831881 0.47318443221 
0.87634360396 0.1378745129 0.46153277943 0.87582706387 0.16041008571 0.45518738844 0.87279180193 0.17546599491 0.45546257268 
0.86707265975 0.18335287144 0.46321347912 0.85841819394 0.18405187478 0.47879339147 0.84650663675 0.17722239224 0.5020146787 
0.83096984448 0.16225272187 0.5321307845 0.81142350852 0.13837352918 0.56784210503 0.78750612308 0.10482671296 0.60732649074 
0.75890896776 0.061034018325 0.64833018383 0.72538148312 0.006792700528 0.68831356457 0.68672483634 -0.057571611129 0.7246340516 
0.64278123552 -0.13108742719 0.75475053475 0.59342492225 -0.21206279353 0.77645105014 0.53859400016 -0.29809807694 0.78806981893 
0.47836799969 -0.38618914581 0.78868371388 0.41305120882 -0.4729599381 0.7782657617 0.34324105484 -0.55500934 0.75772700281 
0.26983487335 -0.62932719182 0.72879107209 0.19394887723 -0.69365847635 0.69370148566 0.11680447704 -0.74671060071 0.654812945 
0.039627743501 -0.78817644112 0.61417223937 -0.036390473969 -0.818593534 0.57321929442 -0.11006849775 -0.83914638469 0.53265211054 
-0.18017693147 -0.85148867066 0.49244625809 -0.24539841791 -0.85758645724 0.45202332335 -0.30432506752 -0.85958904065 0.41047890869 
-0.35549609546 -0.85968574016 0.36682823538 -0.39746086945 -0.85992891886 0.32022977964 -0.42884502102 -0.8620286795 0.27018235261 
-0.44841655583 -0.86716510219 0.21667320552 -0.45518159311 -0.87585412875 0.16027870243 -0.44853413289 -0.88789966571 0.10223167449 
-0.42845998503 -0.90247052477 0.044373338337 -0.39575479544 -0.91829043135 -0.010992068507 -0.35214814845 -0.933928569 -0.06139307413 
-0.30024639145 -0.94810942643 -0.10459741845 -0.24326312723 -0.95994819195 -0.13900546644 -0.18461304404 -0.96904626176 -0.16391267962 
-0.12749076803 -0.97544438922 -0.17959495431 -0.074569708874 -0.97948828246 -0.18719525379 -0.027870251368 -0.98167997481 -0.18848786735 
0.01123153529 -0.98256206231 -0.18559538335 0.041896229975 -0.98264654524 -0.18069441895 0.063678091227 -0.98237198093 -0.17575662658 
0.076380828112 -0.98207845389 -0.17230171069 0.076380828112 -0.98207845389 -0.17230171069 
FrenetNormal 3 128 double
-0.27258397383 -0.95811730267 0.08780211577 -0.27258397383 -0.95811730267 0.08780211577 -0.2544495206 -0.96358986953 0.08215841282 
-0.22519836748 -0.97160446327 0.072597949253 -0.18517099694 -0.98095838452 0.058586258982 -0.13515121574 -0.99004288056 0.03936043103 
-0.076595187073 -0.9969645122 0.013962046378 -0.011825370892 -0.99975283689 -0.018826198233 0.055916838931 -0.99659080972 -0.060663540245 
0.12268483696 -0.98590536456 -0.11374991386 0.1842401489 -0.96610807734 -0.18080583627 0.2366493417 -0.93497263185 -0.26424092561 
0.27709934931 -0.88925003721 -0.36393725 0.3052689736 -0.82599537747 -0.47385914589 0.32504463505 -0.74628960351 -0.58085954663 
0.34468049947 -0.65781536421 -0.669682238 0.37348455846 -0.57126368279 -0.73086735412 0.41752124427 -0.4939260583 -0.76270116003 
0.47791866637 -0.4274069683 -0.76740929873 0.55176561436 -0.36960212571 -0.74762890225 0.63380281439 -0.31736396183 -0.70538933094 
0.71768218313 -0.26777027701 -0.64283074193 0.79710958735 -0.21859015754 -0.56288067011 0.86673109409 -0.16823515591 -0.46954674193 
0.92284100983 -0.11582886953 -0.36735288696 0.96359671168 -0.061381631928 -0.26021850915 0.9886357414 -0.0060466285634 -0.1502092178 
0.99818232402 0.047755587959 -0.036762097796 0.99184566712 0.096494368989 0.083252683817 0.96725210138 0.13621742928 0.21416858858 
0.91889416795 0.16381233541 0.35888581314 0.83859480526 0.17974715149 0.5142467444 0.71916853972 0.19138904687 0.66795721736 
0.55852047953 0.21431400446 0.80132663842 0.35636296683 0.26695073704 0.89540088221 0.10871265055 0.35877158642 0.92707308686 
-0.17768215515 0.47287277701 0.86302977266 -0.45471072315 0.56124291072 0.69155227815 -0.66052666444 0.58735779818 0.46767012143 
-0.78585771623 0.55911262057 0.26423612047 -0.86154028602 0.4953364242 0.11131110647 -0.91887167576 0.3944602441 0.0087154640145 
-0.97374232141 0.22248536114 -0.048230235121 -0.99437075186 -0.089350955822 -0.056949227781 -0.85035430325 -0.52586359424 -0.019105998926 
-0.55640188991 -0.83077406314 0.015211605011 -0.32330470597 -0.94628253215 0.0048411198595 -0.18351248617 -0.98195709944 -0.045644520723 
-0.097515189271 -0.98709448924 -0.12702463212 -0.037605519545 -0.97183291997 -0.23265124232 0.010130076226 -0.93472388519 -0.35523040413 
0.052058106133 -0.87289357708 -0.48512550611 0.090543555081 -0.78635832615 -0.61109937615 0.1264868103 -0.67952067866 -0.72267055709 
0.16104627003 -0.5602234357 -0.81253541523 0.19657985136 -0.43744288941 -0.87749648463 0.23725617299 -0.31917750119 -0.91751579339 
0.29016626433 -0.21132125543 -0.93335248757 0.36635415557 -0.11732877707 -0.9230485311 0.48368755634 -0.038259254926 -0.87440412697 
0.66201782585 0.026755880732 -0.74901036114 0.87947872836 0.077367992662 -0.46960766612 0.99316496337 0.10885772002 -0.042111190125 
0.93904467262 0.13156394298 0.31762561568 0.83801611449 0.16814945718 0.5190903119 0.75320563921 0.22718034076 0.61730896465 
0.68733647256 0.30733889141 0.65811198083 0.63162795501 0.40374211923 0.66184471564 0.57892371549 0.5095097998 0.63659021007 
0.52555792605 0.61660878113 0.58615908882 0.47088484815 0.71709058388 0.5138565503 0.41632188221 0.80445581783 0.4237061807 
0.36404444287 0.87448069264 0.32055446 0.31609635227 0.9253218689 0.209433844 0.27363573768 0.95708727428 0.095432868908 
0.23695692429 0.97137712148 -0.01667044995 0.20538639054 0.97103614931 -0.12208696622 0.17750510839 0.96011924227 -0.21601615015 
0.15108765006 0.94400108284 -0.29331634389 0.12274404264 0.92950250318 -0.34779159934 0.086162602681 0.92541581421 -0.36902788066 
0.0276067513 0.94220890942 -0.333886565 -0.089690718698 0.98081713792 -0.17307026588 -0.3366132904 0.89211849959 0.30135705634 
-0.49810417191 0.30266860643 0.81257857996 -0.46083156841 -0.13323164675 0.87743010768 -0.42763291805 -0.33532046826 0.83945831997 
-0.4151571424 -0.45585416874 0.78730014859 -0.41579670069 -0.54611477765 0.7272356931 -0.42426482463 -0.62255543532 0.65758960495 
-0.43751123058 -0.68963139086 0.57705499553 -0.45405543491 -0.74683080599 0.48587797774 -0.47308215986 -0.79225548043 0.38538879557 
-0.49466268033 -0.82332806945 0.27827993595 -0.51930344734 -0.83790489799 0.16804556379 -0.54753846873 -0.83473617407 0.058456350903 
-0.57971717698 -0.81347791327 -0.046708450394 -0.61583156025 -0.77462432926 -0.14390496144 -0.65534892852 -0.7194274371 -0.23009116593 
-0.69715677177 -0.64975984256 -0.30295970452 -0.73967128987 -0.56790493998 -0.36106836206 -0.78041156587 -0.47679685118 -0.40450284369 
-0.8161099734 -0.38017973074 -0.43523313711 -0.84300997955 -0.28288923621 -0.45750175346 -0.85746447102 -0.19084192977 -0.47784311106 
-0.85633882639 -0.11053580547 -0.50444588423 -0.83694486246 -0.047870926175 -0.54518957403 -0.79488134067 -0.0083046087443 -0.60670807456 
-0.72266265816 0.0039035085794 -0.69118987632 -0.60887567098 -0.013935841949 -0.79314324658 -0.44448402136 -0.059029319509 -0.89383974749 
-0.2337782465 -0.12018863474 -0.96483284746 -0.002152463721 -0.17892488982 -0.98386038171 0.2191042838 -0.22012804694 -0.95054560952 
0.41100072904 -0.23839233842 -0.87991334443 0.56982366391 -0.23615464581 -0.78710353532 0.69858680914 -0.21862321816 -0.68130782953 
0.80130164262 -0.1912161372 -0.56687923441 0.88065898002 -0.15852316382 -0.44644167306 0.93845925437 -0.12427664588 -0.3222569521 
0.97592303597 -0.09106214499 -0.19819665388 0.99505712791 -0.060740714256 -0.078561299832 0.99893883377 -0.034268502761 0.030771352078 
0.99208093868 -0.012270688539 0.12499936524 0.97986159758 0.0050714780101 0.1996134507 0.96756839169 0.017634339232 0.25199293143 
0.95884806578 0.024954301606 0.28282091434 0.95884806578 0.024954301606 0.28282091434 
FrenetBinormal 3 128 double
0.28922555899 0.0054376752901 0.95724553157 0.28922555899 0.0054376752901 0.95724553157 0.28917569599 0.0052579179873 0.95726160016 
0.28899731631 0.0045467888193 0.95731910974 0.28860481024 0.0027033262426 0.95744449214 0.28795498918 -0.0012365321634 0.95764314606 
0.28715054243 -0.0086471013341 0.9578464353 0.28656586812 -0.021426170021 0.95782092401 0.28700515742 -0.042150361101 0.95700124695 
0.28986681193 -0.07402123427 0.95420023487 0.29719857275 -0.12058493139 0.94717067241 0.31141446465 -0.18462624073 0.93216639204 
0.33434852909 -0.26585859756 0.90417380365 0.36561429839 -0.35780995263 0.85924281935 0.40145961279 -0.44723189505 0.79925828826 
0.4359340902 -0.51963955289 0.73480351392 0.46374082019 -0.56738136452 0.68045781565 0.48158184167 -0.59150213783 0.6466870578 
0.48753794424 -0.59765532833 0.63648634034 0.48030105602 -0.59203347118 0.64715320025 0.45903277482 -0.57967421648 0.67325085547 
0.423878815 -0.56442341433 0.70834522625 0.37633892263 -0.54914242034 0.74619810875 0.31937836676 -0.53589662199 0.78154479679 