# vtk DataFile Version 4.2
vtk output
ASCII
DATASET POLYDATA
POINTS 128 float
0 0 0 -0.123344 -0.0700838 0.304516 -0.395576 -0.19721 0.890941 
-0.69254 -0.27848 1.35068 -1.0053 -0.322365 1.69467 -1.35552 -0.36467 2.03857 
-1.73905 -0.406725 2.37555 -2.146 -0.442924 2.67372 -2.57154 -0.477996 2.93595 
-3.0124 -0.519083 3.17327 -3.46562 -0.570215 3.38641 -3.92832 -0.634652 3.57334 
-4.3977 -0.716669 3.73421 -4.87089 -0.820765 3.86964 -5.34441 -0.950879 3.97912 
-5.81444 -1.11056 4.06181 -6.27644 -1.30222 4.11706 -6.72565 -1.52752 4.14449 
-7.15748 -1.78608 4.14473 -7.56765 -2.07649 4.11896 -7.9536 -2.39571 4.06962 
-8.31368 -2.74008 3.99964 -8.64781 -3.10595 3.91229 -8.95671 -3.48976 3.81091 
-9.24204 -3.88837 3.69827 -9.506 -4.29881 3.57672 -9.7518 -4.71783 3.44679 
-9.98321 -5.14203 3.30789 -10.205 -5.56731 3.15696 -10.4224 -5.98883 2.98915 
-10.6403 -6.39802 2.79408 -10.8625 -6.78436 2.55918 -11.085 -7.13718 2.27685 
-11.2992 -7.44689 1.94323 -11.4956 -7.71546 1.56465 -11.6642 -7.9514 1.15289 
-11.7993 -8.16408 0.717342 -11.8977 -8.36312 0.265785 -11.9573 -8.55492 -0.195569 
-11.9767 -8.74388 -0.661507 -11.9557 -8.93322 -1.12724 -11.8954 -9.12537 -1.58828 
-11.7975 -9.32224 -2.04084 -11.6646 -9.52544 -2.48158 -11.4999 -9.73671 -2.90743 
-11.307 -9.95793 -3.31556 -11.0889 -10.1909 -3.70436 -10.8485 -10.4373 -4.07276 
-10.5895 -10.7006 -4.41479 -10.316 -10.9852 -4.72133 -10.0284 -11.2949 -4.99287 
-9.72516 -11.6328 -5.23391 -9.42465 -12.0126 -5.38357 -9.16285 -12.4511 -5.33083 
-9.00074 -12.865 -5.0577 -9.01233 -13.0949 -4.6318 -9.16622 -13.1365 -4.13499 
-9.36442 -13.0873 -3.65228 -9.56687 -12.9958 -3.20631 -9.77791 -12.8714 -2.77338 
-9.99626 -12.7231 -2.34392 -10.2155 -12.56 -1.92003 -10.4323 -12.3895 -1.50003 
-10.6457 -12.2179 -1.07886 -10.8542 -12.0521 -0.652319 -11.0555 -11.9003 -0.217039 
-11.2466 -11.7726 0.230312 -11.4242 -11.6815 0.692853 -11.582 -11.6425 1.16975 
-11.7116 -11.6734 1.65613 -11.8054 -11.7847 2.13993 -11.857 -11.9783 2.60238 
-11.8653 -12.2459 3.03031 -11.8353 -12.5687 3.41681 -11.7725 -12.9308 3.76111 
-11.6832 -13.3191 4.06873 -11.5727 -13.7245 4.34542 -11.4448 -14.1409 4.59688 
-11.3027 -14.5643 4.82805 -11.1489 -14.9921 5.04303 -10.9854 -15.4225 5.24515 
-10.8133 -15.8543 5.4369 -10.6339 -16.2866 5.6203 -10.4479 -16.7191 5.79681 
-10.2557 -17.1512 5.96757 -10.0574 -17.5825 6.13337 -9.85261 -18.0124 6.29464 
-9.64035 -18.4404 6.45138 -9.41903 -18.8655 6.60336 -9.18635 -19.2864 6.75006 
-8.93946 -19.7012 6.89089 -8.67488 -20.1073 7.02522 -8.38905 -20.5011 7.15247 
-8.07843 -20.8782 7.27218 -7.74032 -21.2337 7.38406 -7.37345 -21.5619 7.48814 
-6.97808 -21.8579 7.58481 -6.55688 -22.1181 7.675 -6.11341 -22.3402 7.76007 
-5.65245 -22.5247 7.84203 -5.17857 -22.6728 7.923 -4.69562 -22.7873 8.00523 
-4.20703 -22.8705 8.09092 -3.71541 -22.9251 8.18214 -3.2231 -22.9535 8.2809 
-2.73195 -22.9583 8.38901 -2.24365 -22.942 8.50815 -1.7595 -22.9076 8.63973 
-1.28063 -22.8582 8.78502 -0.807808 -22.7976 8.94514 -0.34168 -22.7296 9.1211 
0.117332 -22.6587 9.3138 0.568839 -22.5894 9.52404 1.01244 -22.5264 9.7524 
1.44759 -22.4746 9.99927 1.87324 -22.4383 10.2646 2.28816 -22.4218 10.5482 
2.69074 -22.4282 10.8501 3.07905 -22.4595 11.1694 3.45044 -22.5148 11.5028 
3.80308 -22.5929 11.8491 4.13805 -22.6952 12.2149 4.45427 -22.8197 12.6001 
4.7412 -22.9516 12.976 4.9984 -23.086 13.3369 5.27144 -23.2651 13.786 
5.56246 -23.4917 14.3327 5.70401 -23.609 14.6122 
LINES 1 129
128 0 1 2 3 4 5 6 7 8 9 10 11 12 13 14 15 16 17 18 19 20 21 22 23 24 25 26 27 28 29 30 31 32 33 34 35 36 37 38 39 40 41 42 43 44 45 46 47 48 49 50 51 52 53 54 55 56 57 58 59 60 61 62 63 64 65 66 67 68 69 70 71 72 73 74 75 76 77 78 79 80 81 82 83 84 85 86 87 88 89 90 91 92 93 94 95 96 97 98 99 100 101 102 103 104 105 106 107 108 109 110 111 112 113 114 115 116 117 118 119 120 121 122 123 124 125 126 127 

CELL_DATA 1
FIELD FieldData 2
Length 1 1 double
58.36821497 
Tortuosity 1 1 double
1.0592093857 
POINT_DATA 128
SCALARS MaximumInscribedSphereRadius float
LOOKUP_TABLE default
0.93 0.944697 0.959394 0.969537 0.979276 0.983374 0.987364 1.18021 1.38407 
1.58011 1.77556 1.63428 1.46057 1.31662 1.17618 1.07436 0.977955 1.01689 
1.07788 1.14655 1.21666 1.23343 1.23894 1.1903 1.12881 1.05115 0.969199 
1.04712 1.17204 1.38136 1.61809 1.60633 1.50583 1.40173 1.29625 1.4431 
1.69565 1.72369 1.64978 1.60036 1.56297 1.55 1.55 1.55 1.55 
1.53165 1.50197 1.43741 1.34966 1.33443 1.37096 1.45853 1.58523 1.69731 
1.79706 1.75909 1.64859 1.49943 1.32521 1.25012 1.24302 1.24 1.24 
1.24 1.24 1.24 1.24 1.24208 1.24605 1.25262 1.26172 1.26262 
1.25507 1.27679 1.33052 1.40188 1.49387 1.5841 1.67213 1.74773 1.80656 
1.84517 1.85438 1.84666 1.81244 1.75834 1.67065 1.58202 1.49166 1.40938 
1.34309 1.31887 1.38503 1.44899 1.5078 1.55 1.55 1.55 1.55 
1.54687 1.53429 1.5142 1.46914 1.42414 1.37937 1.3367 1.30267 1.28475 
1.34139 1.40905 1.53471 1.68866 2.01369 2.30403 2.34944 2.36781 2.15905 
1.97488 2.04357 2.1196 2.29149 2.46592 2.68289 2.89426 2.78722 2.66836 
2.41918 2.17 
TEXTURE_COORDINATES TCoords 2 float
0 0 0.00787402 0 0.015748 0 0.023622 0 0.0314961 
0 0.0393701 0 0.0472441 0 0.0551181 0 0.0629921 0 
0.0708661 0 0.0787402 0 0.0866142 0 0.0944882 0 0.102362 
0 0.110236 0 0.11811 0 0.125984 0 0.133858 0 
0.141732 0 0.149606 0 0.15748 0 0.165354 0 0.173228 
0 0.181102 0 0.188976 0 0.19685 0 0.204724 0 
0.212598 0 0.220472 0 0.228346 0 0.23622 0 0.244094 
0 0.251969 0 0.259843 0 0.267717 0 0.275591 0 
0.283465 0 0.291339 0 0.299213 0 0.307087 0 0.314961 
0 0.322835 0 0.330709 0 0.338583 0 0.346457 0 
0.354331 0 0.362205 0 0.370079 0 0.377953 0 0.385827 
0 0.393701 0 0.401575 0 0.409449 0 0.417323 0 
0.425197 0 0.433071 0 0.440945 0 0.448819 0 0.456693 
0 0.464567 0 0.472441 0 0.480315 0 0.488189 0 
0.496063 0 0.503937 0 0.511811 0 0.519685 0 0.527559 
0 0.535433 0 0.543307 0 0.551181 0 0.559055 0 
0.566929 0 0.574803 0 0.582677 0 0.590551 0 0.598425 
0 0.606299 0 0.614173 0 0.622047 0 0.629921 0 
0.637795 0 0.645669 0 0.653543 0 0.661417 0 0.669291 
0 0.677165 0 0.685039 0 0.692913 0 0.700787 0 
0.708661 0 0.716535 0 0.724409 0 0.732283 0 0.740157 
0 0.748031 0 0.755906 0 0.76378 0 0.771654 0 
0.779528 0 0.787402 0 0.795276 0 0.80315 0 0.811024 
0 0.818898 0 0.826772 0 0.834646 0 0.84252 0 
0.850394 0 0.858268 0 0.866142 0 0.874016 0 0.88189 
0 0.889764 0 0.897638 0 0.905512 0 0.913386 0 
0.92126 0 0.929134 0 0.937008 0 0.944882 0 0.952756 
0 0.96063 0 0.968504 0 0.976378 0 0.984252 0 
0.992126 0 1 0 
FIELD FieldData 7
Curvature 1 128 double
0 0.030146852982 0.055364599758 0.077376491747 0.095251806533 0.1085902031 0.11764325605 0.12324202711 0.12661242894 
0.12907219961 0.13170448799 0.13517304737 0.1396084438 0.14470113509 0.14982388247 0.15422246442 0.15715005669 0.15800970241 
0.15644059217 0.15236478467 0.14601999816 0.13795738267 0.1289993591 0.1202597502 0.11309720662 0.10896318252 0.10902596566 
0.11361909698 0.12199396225 0.13256327169 0.14339919743 0.15269947321 0.15909842215 0.16193349336 0.16131499194 0.15799745236 
0.15311926764 0.14782129474 0.14298915258 0.1391939113 0.13672334783 0.13590159145 0.13716662802 0.14137507948 0.14987830744 
0.16476820714 0.18916477886 0.2282896138 0.29121257635 0.39435238253 0.56628355042 0.8460289487 1.2369193559 1.5667897887 
1.5214724967 1.1390693528 0.74108583382 0.46459351721 0.29186882061 0.1820472964 0.10708960942 0.050959960886 0.0047512793644 
0.037109541056 0.077005374537 0.11657593683 0.15592411507 0.19391042787 0.22792426163 0.2545023013 0.27015457764 0.27296823261 
0.26336553258 0.24409314478 0.21896554851 0.19167544301 0.16490556048 0.14032814662 0.1187416439 0.10043462921 0.085413307957 
0.073615731843 0.064950982062 0.059367431775 0.056828956281 0.057223501381 0.060333207816 0.06582902901 0.073303957016 0.082318049501 
0.092359230862 0.10288986911 0.11324731713 0.12277375036 0.13080096918 0.13673625446 0.14012258528 0.14082174861 0.13884103798 
0.13450028992 0.1282147965 0.12054971346 0.11197304943 0.10299545906 0.094068749486 0.08557610675 0.078017648265 0.071883150078 
0.067759287374 0.066212150013 0.06742864267 0.071216125599 0.076944840339 0.083798762622 0.090902201023 0.097474899396 0.10277207961 
0.10619270781 0.10720801156 0.10545975827 0.10072152435 0.092953548721 0.082235230537 0.068848388402 0.05315422084 0.035688965212 
0.017042024594 0 
Torsion 1 128 double
0 0 0.047819094982 0.068373718321 0.092211366827 0.11923687277 0.14870404238 0.17861140664 0.20539093183 
0.22440725239 0.23169232132 0.22582765429 0.20881762741 0.18481566949 0.15801124785 0.13125222304 0.10564363265 0.080794366352 
0.055402148508 0.027323643907 -0.0061342741847 -0.047806667566 -0.099904252104 -0.16175255111 -0.22565782345 -0.27368527357 -0.28416561077 
-0.24965601626 -0.18466919426 -0.11027424101 -0.039493146483 0.023751669763 0.080210424221 0.13166507407 0.17921633463 0.22264352556 
0.26032512821 0.2901830412 0.31087860412 0.32343368141 0.3305554001 0.33495159123 0.33863236479 0.34007172142 0.33619658624 
0.32374215594 0.30136754741 0.27060006447 0.23460487301 0.19573756589 0.15529206339 0.11391325976 0.075339283547 0.046017945793 
0.026591255407 0.011130087389 -0.0033271608754 -0.015034080637 -0.023479373837 -0.030129050192 -0.039548321678 -0.078744713294 -5.3839184676 
-0.096925584775 -0.033215717588 -0.019991130743 -0.013265854274 -0.008162768269 -0.0033768849745 0.001241208991 0.0059405920337 0.010873567483 
0.016126917216 0.021885993514 0.028417709396 0.03614648687 0.04563483327 0.057818488666 0.073921479 0.095525908549 0.12403065986 
0.15929896646 0.19785560801 0.23142317324 0.24804352535 0.24125640104 0.2155180652 0.18158916637 0.14900491035 0.12267553798 
0.10373112309 0.091288455961 0.083989636149 0.080790183395 0.080935951813 0.083749848878 0.089144342602 0.096904680105 0.10718335825 
0.12000006289 0.13573816666 0.15501869306 0.17834078866 0.20685311688 0.24246031764 0.28615594996 0.3372462539 0.39126686637 
0.43491612452 0.4504512526 0.42764239825 0.372593837 0.30401309913 0.23703767726 0.17887366275 0.13091431737 0.092883585629 
0.062922061263 0.03951687411 0.021890639028 0.0092743491058 0.00079850918273 -0.0042622011694 -0.0064565887731 -0.0067117109068 -0.005442605767 
0 0 
Abscissas 1 128 double
0 0.50276228999 1.00552458 1.5082862201 2.0110478027 2.5138110675 3.0165743647 3.5193386358 4.0221029637 
4.5248640556 5.0276249031 5.5303849955 6.0331450151 6.5359078274 7.0386709692 7.5414359159 8.0442011158 8.5469603335 
9.0497185767 9.5524819294 10.055246235 10.558008623 11.060770607 11.563533506 12.066296621 12.569061595 13.071827061 
13.574593578 14.077360403 14.580113288 15.082861646 15.585624223 16.088391879 16.591150007 17.093904449 17.596671592 
18.099444055 18.602210876 19.104975135 19.607739595 20.110504153 20.613266964 21.116028848 21.618784441 22.121536432 
22.624295527 23.127059007 23.629830555 24.132607465 24.63537295 25.138130281 25.640881806 26.143628879 26.646387149 
27.149154848 27.651923158 28.154691789 28.657461813 29.160232739 29.662997232 30.165757315 30.668515008 31.171270938 
31.674028353 32.176786951 32.67955585 33.182333556 33.685094155 34.187839072 34.690595887 35.19336434 35.696117706 
36.198855514 36.701613645 37.204394001 37.707164273 38.209922754 38.712691008 39.215471526 39.718240814 40.220994951 
40.723754757 41.226522798 41.7292855 42.232039841 42.734795933 43.237554985 43.74031611 44.243081027 44.74584012 
45.248587684 45.751338259 46.254095302 46.756853437 47.259614119 47.76237553 48.265138795 48.767902256 49.270666261 
49.773432599 50.276206001 50.778976147 51.281735452 51.784495505 52.287258321 52.790020608 53.292780718 53.795541134 
54.298302963 54.801065656 55.303832888 55.806599203 56.30935997 56.812121713 57.314890348 57.817656873 58.320405665 
58.823156471 59.32592799 59.828698301 60.331452814 60.834207427 61.336963695 61.839720275 62.342494567 62.845267257 
63.348022267 63.850777277 
ParallelTransportNormals 3 128 double
0 -0.97657460698 -0.21517908123 -0.01274565311 -0.98058134427 -0.19395233943 -0.02549130622 -0.98458808156 -0.17272559763 
-0.030905803592 -0.98557991914 -0.16622278922 -0.035670963898 -0.98630472022 -0.16102411293 -0.031767609818 -0.98592326051 -0.16406771554 
-0.027697845382 -0.98552056381 -0.16726954602 -0.01042116969 -0.98387229341 -0.17732412251 0.0076261382391 -0.98215134294 -0.18777856137 
0.039991162871 -0.97788652347 -0.2019315965 0.073437150432 -0.97342964628 -0.21636386927 0.1225889913 -0.96344783061 -0.2319319027 
0.17325390996 -0.95293375084 -0.24760935356 0.23816293869 -0.93277893326 -0.26099773975 0.3047527541 -0.911486521 -0.27411601925 
0.37919136203 -0.87755066966 -0.28124456522 0.45473023439 -0.84184242767 -0.28753345453 0.52730932427 -0.79537535155 -0.28605908075 
0.59940619757 -0.74715541408 -0.28331989299 0.65946597946 -0.6953392082 -0.27473722771 0.71728173022 -0.64285256309 -0.26506518419 
0.76132914885 -0.5934035208 -0.25315913495 0.80247138301 -0.54459542737 -0.24078169974 0.83192005179 -0.50307662031 -0.22901433792 
0.85859579343 -0.46328634166 -0.21739164446 0.87564291239 -0.43467472847 -0.20831834416 0.89014057287 -0.40902299276 -0.19992007001 
0.89637737492 -0.39762915071 -0.19577209842 0.90018543304 -0.39042721837 -0.19287374232 0.89849263786 -0.39326915677 -0.19491188618 
0.89501350138 -0.39937273116 -0.19855310384 0.89606654105 -0.39800208477 -0.19652349907 0.89873838146 -0.3939617994 -0.19246839237 
0.90937921582 -0.37846745966 -0.16816908856 0.92310432693 -0.35854000403 -0.13603457908 0.93652151679 -0.33415296784 -0.086493160876 
0.94980973275 -0.3078980208 -0.029660798299 0.95664769959 -0.27994024829 0.035827468422 0.96055670791 -0.25120924903 0.10524624755 
0.95633095905 -0.22180804663 0.17561791489 0.94810652188 -0.19207740189 0.2464579801 0.93322237685 -0.16239989452 0.31298522695 
0.91480186242 -0.13275060362 0.37722232547 0.89232342864 -0.10338403555 0.43498718815 0.8675203747 -0.074179428114 0.48904436505 
0.84028327211 -0.044436821391 0.53732874155 0.81154334117 -0.014362043577 0.58204888027 0.77899998557 0.019739370036 0.62387265624 
0.74392880337 0.056516960517 0.66377145579 0.69773279464 0.10904915452 0.70297120565 0.64359564806 0.17282731969 0.74167195899 
0.55562355725 0.30965408844 0.74396608994 0.4417140027 0.5024790434 0.71835133943 0.38229281932 0.6798943286 0.57120597172 
0.36874999607 0.8443349118 0.32173371661 0.38797678995 0.90015714357 0.16811628123 0.42445824897 0.89878696834 0.06497068411 
0.45032930042 0.89187743713 0.00020480591856 0.4693175753 0.8813746274 -0.039664853288 0.48248892704 0.87315097381 -0.066554608013 
0.49167176916 0.86649007701 -0.084544387147 0.49558757526 0.86364872399 -0.092216231073 0.49561511636 0.86362705901 -0.092271102911 
0.48987104493 0.86782746476 -0.079704536107 0.47953908913 0.87538401617 -0.057105123081 0.46292158995 0.88447009976 -0.015236860977 
0.44093125528 0.89486361603 0.043102269211 0.41645341538 0.89569664397 0.12448038356 0.38969517984 0.88776518942 0.22697925721 
0.37021903772 0.86056728714 0.33360832357 0.35786528734 0.81452546453 0.44427700449 0.35406085018 0.7627370164 0.53534602773 
0.35907325917 0.70502211409 0.6062020629 0.36627409246 0.65466803204 0.65955235 0.37586785259 0.61236261965 0.69376102269 
0.3846216295 0.57785057133 0.71935788122 0.39239314317 0.55245196109 0.73488421894 0.3989532333 0.53209617051 0.74667244045 
0.40399294574 0.51806928994 0.7537691991 0.40814192231 0.50686865016 0.75924575364 0.41108927946 0.49948066232 0.76253662239 
0.41344339256 0.49369459225 0.76506181666 0.4149356847 0.49023566945 0.76647469588 0.41597017686 0.48785735159 0.7674396456 
0.41628777112 0.48717122115 0.76770315427 0.41610391794 0.48750311764 0.76759016773 0.41507226241 0.48955620266 0.76684063688 
0.41310752199 0.49317952393 0.76555887699 0.40943707901 0.49967327631 0.76330418911 0.40389351226 0.50860011593 0.76028240905 
0.39464196413 0.5223434243 0.7557421156 0.38221274658 0.53884896729 0.75037018505 0.3629579643 0.56128773007 0.74321191611 
0.33966928072 0.58538423766 0.735495986 0.30696769909 0.61334900618 0.72647878264 0.27100454973 0.64078843047 0.71736333954 
0.22676303369 0.66689444927 0.7079985487 0.18124328764 0.69103896969 0.69878287979 0.1321887843 0.70975925445 0.6899795857 
0.083093451978 0.72655019407 0.68122733647 0.033874563656 0.73750258091 0.67262955835 -0.015041817723 0.7470174032 0.66388807849 
-0.062950779738 0.751744797 0.654668038 -0.11032634803 0.75546008287 0.64519211389 -0.15573434259 0.75544192211 0.63477229065 
-0.20012277882 0.754816486 0.62416147424 -0.2403165033 0.75169257094 0.6127648653 -0.27904821722 0.74838707308 0.60138793421 
-0.31101483 0.74424134462 0.5901020577 -0.34130055738 0.7402474974 0.57912159372 -0.36274980173 0.73705209602 0.56974669587 
-0.38260559179 0.73412437909 0.56092611962 -0.39282806954 0.7328149627 0.55545672397 -0.40186914833 0.73166250841 0.55060966046 
-0.40256782808 0.73161843537 0.55015716922 -0.40276357458 0.73156058195 0.55008663484 -0.39873253471 0.73138691457 0.55322616874 
-0.39482025596 0.73118594397 0.55631081087 -0.39212952633 0.73070413898 0.55883084914 -0.38973517741 0.73029173303 0.56105235992 
-0.39121388643 0.73078622308 0.55937275907 -0.39281453464 0.7313550354 0.55750506239 -0.3964512449 0.73316483303 0.55249666273 
-0.40013863844 0.73502031845 0.54738289055 -0.40670842205 0.73947409738 0.53627651653 -0.41273225532 0.74355776639 0.52609308441 
-0.41273225532 0.74355776639 0.52609308441 -0.41273225532 0.74355776639 0.52609308441 
FrenetTangent 3 128 double
-0.63232765354 -0.13798860532 0.76231285138 -0.63232765354 -0.13798860532 0.76231285138 -0.64826984118 -0.13683826052 0.7490136871 
-0.67236442053 -0.13562361668 0.72768971451 -0.70246431963 -0.13517496711 0.69876434362 -0.73610315584 -0.13650100372 0.66296275909 
-0.77082877775 -0.1406802298 0.62131479006 -0.80447850201 -0.14874421504 0.57505608274 -0.83533278428 -0.16157411208 0.52546450481 
-0.86213528992 -0.17982573916 0.47369340865 -0.88400913427 -0.20388285406 0.4206657014 -0.90033290066 -0.23383286797 0.36704612495 
-0.91063109113 -0.26945304079 0.31328273919 -0.91451332032 -0.31020331357 0.25969076073 -0.9116744837 -0.35523153109 0.20654344602 
-0.90194791442 -0.40339772185 0.15414356193 -0.88538861506 -0.45332933659 0.10285675917 -0.86235656005 -0.50350958243 0.053096739463 
-0.83356758915 -0.55239240788 0.0052632722531 -0.80008752143 -0.59852516874 -0.040343282502 -0.76326344461 -0.64065355955 -0.083617765875 
-0.72459834283 -0.67779024226 -0.12473022516 -0.68559491731 -0.70923221694 -0.16416233373 -0.64759473025 -0.73453123759 -0.20269416951 
-0.61163212635 -0.75343291187 -0.24133998701 -0.57832270223 -0.76580109826 -0.28123216385 -0.54779097498 -0.77155254436 -0.32346826588 
-0.51964591226 -0.77062105736 -0.3689326657 -0.49300671839 -0.7629741518 -0.41810862142 -0.46659061318 -0.74868682819 -0.47091531402 
-0.43886740477 -0.72806822655 -0.52660427127 -0.40826935619 -0.70180589855 -0.58376760235 -0.37343014049 -0.67106594936 -0.64048452111 
-0.33339509613 -0.63748879581 -0.69459034336 -0.28774685294 -0.60304929329 -0.74399818447 -0.23662072785 -0.5698194942 -0.78696656548 
-0.18062013607 -0.53970974469 -0.82224677435 -0.1206851264 -0.51427121511 -0.84909376253 -0.057966469578 -0.49461021071 -0.86717969756 
0.0062808471378 -0.48139882501 -0.87647916247 0.070777057924 -0.47496990205 -0.87715118436 0.13429484795 -0.47543125934 -0.8694423566 
0.19572062536 -0.48277706786 -0.85359225603 0.25410130911 -0.49699386667 -0.82971659089 0.30868182699 -0.51811753326 -0.79766518754 
0.3588977902 -0.54627785371 -0.75681760203 0.4042925519 -0.58171215739 -0.70580344177 0.44435164947 -0.62472732698 -0.64208050783 
0.47816059841 -0.67553618633 -0.56126045922 0.50368587958 -0.73369289997 -0.45606497701 0.51630589301 -0.79638444674 -0.31496037502 
0.50600435783 -0.85386535677 -0.12195713329 0.45433295438 -0.88043293834 0.13571811839 0.34110360094 -0.83118742122 0.43906241497 
0.17524459477 -0.68089315885 0.71110747305 0.0065616073453 -0.47570696193 0.87957934928 -0.12574417646 -0.28368870987 0.95063616488 
-0.2171983184 -0.13314284834 0.96700458759 -0.27756638188 -0.023302071228 0.96042382162 -0.31642942809 0.053732479032 0.94709304598 
-0.34029297111 0.10481572124 0.93445939366 -0.35315245653 0.13449022254 0.92584864988 -0.35733010493 0.1454057074 0.922590037 
-0.35404562569 0.13892252052 0.92485254404 -0.34376774537 0.11561906665 0.93190985008 -0.32644259804 0.075725185483 0.94217881873 
-0.30169756553 0.01959752554 0.95320224294 -0.26910783282 -0.051776101443 0.96171732314 -0.22854577316 -0.13624387392 0.96395250733 
-0.18054570119 -0.23012185559 0.95626731689 -0.12656649868 -0.32828692272 0.93606015714 -0.068949301562 -0.42488665511 0.902616931 
-0.01050911442 -0.51449656096 0.85742804204 0.046068470875 -0.59319285264 0.80374121182 0.098746188867 -0.65905356012 0.74558540428 
0.14635837714 -0.71197681615 0.68678107043 0.18854153492 -0.75309151486 0.63032155275 0.22551463238 -0.78412261207 0.57818239321 
0.2578515006 -0.80691570625 0.53141287776 0.28630302644 -0.82315647506 0.49035088928 0.3116914031 -0.83424474403 0.45484522234 
0.33485783749 -0.84126272815 0.42443757008 0.35663869394 -0.84498891851 0.39850040098 0.37785476091 -0.84592850417 0.37633860484 
0.399309581 -0.84434585559 0.35725611916 0.42177188315 -0.84029921214 0.34059611369 0.445951766 -0.83366594638 0.32577309934 
0.47246935749 -0.8241638197 0.31229265847 0.50180408948 -0.81137925248 0.29976051178 0.5342436472 -0.7948003406 0.28788217036 
0.56982820329 -0.77386273783 0.27646388866 0.6083100173 -0.74800700711 0.26541371511 0.64912309829 -0.71676055357 0.25474205014 
0.69139089674 -0.67983082198 0.24455813499 0.73398303159 -0.63719183548 0.23506482966 0.77560897892 -0.58915663253 0.22655059957 
0.81494655019 -0.53641493092 0.21936531682 0.85079647335 -0.47999426114 0.21389453054 0.8822059652 -0.42117984652 0.21052356602 
0.90854562851 -0.36139999475 0.20960649968 0.92953479776 -0.30209391917 0.21143397019 0.94520875209 -0.24460245044 0.2162176131 
0.95584769503 -0.19010527578 0.22408741157 0.96189829795 -0.13959750502 0.23508339157 0.9638988804 -0.093877517582 0.24917054413 
0.96241074715 -0.053587788429 0.26625908943 0.95797384713 -0.019231814703 0.28621014222 0.95107110215 0.0088032395202 0.30884666361 
0.94210254661 0.030222152115 0.33396019703 0.93136345632 0.044842055285 0.36131883746 0.91903066573 0.052584041119 0.39066296735 
0.90515844381 0.053485644866 0.42169595372 0.88968238457 0.0477351451 0.45407775821 0.87244173719 0.035685005969 0.48741357753 
0.85322063687 0.017874627356 0.52124374578 0.83180396257 -0.0049563547362 0.55504738753 0.80804869898 -0.031867520823 0.58825314381 
0.78196569144 -0.061751051793 0.62025516122 0.75378860828 -0.093371171366 0.65044950487 0.72402419905 -0.12542391661 0.67827560794 
0.69347087391 -0.15662357297 0.70325472159 0.66319499555 -0.18578267142 0.7250222044 0.63446622515 -0.21186966244 0.74334638984 
0.6086546645 -0.23405012833 0.75812930085 0.58710859354 -0.25169805568 0.76938390168 0.5710231332 -0.26438103113 0.7771970482 
0.56131882932 -0.27183670033 0.78168150816 0.56131882932 -0.27183670033 0.78168150816 
FrenetNormal 3 128 double
-0.77377588573 0.064418570426 -0.63017547275 -0.77377588573 0.064418570426 -0.63017547275 -0.75973343038 0.050990137658 -0.64823230452 
-0.73683920349 0.028774546979 -0.67545541204 -0.70489566371 -0.0034858629679 -0.70930244046 -0.66362151206 -0.047293282384 -0.74657205558 
-0.61260555775 -0.10384661367 -0.78353705173 -0.55131127427 -0.17333381681 -0.81609513344 -0.4793143897 -0.25402390035 -0.84007712377 
-0.39683956487 -0.34162091864 -0.85194689254 -0.3053752449 -0.42947154513 -0.84988243406 -0.20777006159 -0.51012674695 -0.83462704458 
-0.10756639218 -0.57743694414 -0.80931826052 -0.0079645817948 -0.6279862102 -0.77818370918 0.088791790255 -0.66107354227 -0.74504885054 
0.18133303006 -0.67773197749 -0.71259925547 0.26878854034 -0.67979115771 -0.68237577806 0.35033254792 -0.66912483248 -0.65539229812 
0.42500726969 -0.6473699397 -0.63267762872 0.49166463626 -0.61573653125 -0.61573891345 0.54889239223 -0.57471912161 -0.6069720529 
0.59494405079 -0.5238472412 -0.60961105987 0.62741256173 -0.46129388716 -0.62734474339 0.64283373573 -0.38382061039 -0.662907631 
0.63681327803 -0.28784471913 -0.7152721626 0.60635544336 -0.1728692216 -0.77617608088 0.55507003074 -0.045894657199 -0.83053653828 
0.49641335483 0.0791220769 -0.86447294816 0.44813387204 0.18922391492 -0.87371067451 0.42256385504 0.27903613642 -0.86231005038 
0.42384256579 0.34902924799 -0.83578469923 0.45050031558 0.40129501822 -0.79750346333 0.49882683759 0.43685521105 -0.74855147497 
0.56435444695 0.45521922574 -0.68867954429 0.64220017835 0.4548149824 -0.6170269546 0.72668777283 0.43384969584 -0.53263432319 
0.81101657751 0.3912369029 -0.43495493654 0.88732184679 0.32761367015 -0.32454463998 0.9477411056 0.24571364685 -0.2034984042 
0.98575998227 0.1502709793 -0.075471121204 0.99739083841 0.046231323137 0.055445290377 0.9808297879 -0.061247040988 0.1849911542 
0.93590870468 -0.16798650697 0.30960528094 0.86374060687 -0.26939404233 0.42588615145 0.76741795467 -0.35979298391 0.5306775778 
0.6526175976 -0.43282033241 0.62189776584 0.52708035139 -0.48248033775 0.69957060177 0.39854714206 -0.50403693966 0.76622903822 
0.27167083294 -0.49394482754 0.82596214555 0.1466403956 -0.44764798636 0.88210423119 0.019067065666 -0.35699005607 0.93391356499 
-0.1182224952 -0.20871855732 0.97080379349 -0.26806315424 0.010169777889 0.9633476636 -0.41347259564 0.28680215457 0.86416719261 
-0.51345501768 0.55307109684 0.65610693234 -0.54594413723 0.7352355031 0.4017135223 -0.53146272731 0.82840158325 0.17691293437 
-0.49811203147 0.86708021175 0.0075040321622 -0.46127283602 0.88016673295 -0.11195487016 -0.42692063209 0.8835053671 -0.19276161496 
-0.39649003635 0.88511147843 -0.24366641507 -0.36588319035 0.89094262283 -0.26898091726 -0.13613187003 0.96914937392 -0.20546923128 
0.39890820895 -0.87200425276 0.28369142391 0.38640055878 -0.88706891667 0.25259324073 0.39084388044 -0.89676507027 0.2074933008 
0.40373874115 -0.90309213874 0.14635442542 0.42188740363 -0.90398939526 0.069384377975 0.4428354955 -0.89634037171 -0.021694745052 
0.4639991568 -0.87718625127 -0.1234870968 0.48280880909 -0.84471783726 -0.23097062428 0.49750372449 -0.79888106525 -0.33805190091 
0.50727784009 -0.74168631054 -0.43882867923 0.51260151947 -0.67654729532 -0.52869976303 0.51482821757 -0.60734875706 -0.60504495179 
0.51594395338 -0.53740998976 -0.66707746168 0.51803468771 -0.46900774515 -0.71531237743 0.5232367035 -0.40313172865 -0.75080500895 
0.53363131205 -0.33957440051 -0.77454944924 0.5513251298 -0.27702798971 -0.78695367981 0.57837847396 -0.2132165757 -0.78741160311 
0.61619200586 -0.14527306716 -0.77408213251 0.6642942013 -0.070562287595 -0.74413317201 0.71874689444 0.011776225537 -0.69517208103 
0.77189694462 0.099357366637 -0.62793568188 0.81462601025 0.18625283081 -0.54926709936 0.84181228603 0.2669935783 -0.46911246439 
0.85319092004 0.33885242772 -0.39654039667 0.85157587634 0.40263700986 -0.33571113345 0.83991157941 0.46058971311 -0.28706385169 
0.82025452727 0.51524606524 -0.24840290407 0.79361433309 0.56832952381 -0.21720461018 0.76038346171 0.62080377987 -0.19083935143 
0.72069493353 0.67275408593 -0.16733425428 0.67468008717 0.72379104732 -0.14468344685 0.62265064379 0.77302868575 -0.12137885646 
0.5651659735 0.81937459572 -0.09598278126 0.503001681 0.86167687575 -0.067098961959 0.43709199344 0.89879285593 -0.033496139998 
0.36837013866 0.92965860434 0.0061903403787 0.29770381332 0.95318115759 0.053085971313 0.22568213254 0.96812489691 0.10863590119 
0.15262792501 0.9728021066 0.17424344437 0.07865654719 0.96477053506 0.25105967868 0.0035610850499 0.94024788573 0.34047207237 
-0.072864507546 0.8934600356 0.44319287938 -0.15009817752 0.81665324823 0.55726834583 -0.2261997472 0.70075470825 0.67659183651 
-0.29645773491 0.54048085343 0.78739650652 -0.35408333765 0.34262785952 0.87019028946 -0.39417764638 0.12906336039 0.90992671798 
-0.41778011012 -0.071054872176 0.90576541374 -0.43136299535 -0.23805986842 0.87020311726 -0.44227103314 -0.36670867653 0.81848706758 
-0.45561425471 -0.46085501628 0.76159589342 -0.4738538299 -0.52711162323 0.70541894258 -0.49750049665 -0.57170491792 0.65241608093 
-0.52572720578 -0.59993668 0.60306457788 -0.55729925176 -0.61530174437 0.5575135042 -0.59052002401 -0.62089291873 0.51553669579 
-0.62368855044 -0.61917251847 0.47711422575 -0.6551142365 -0.612540747 0.4422885601 -0.68349413265 -0.602880578 0.41154681301 
-0.70764811256 -0.59227983769 0.38527748787 -0.72688254492 -0.58223573483 0.36420229953 -0.74064413003 -0.57425636297 0.34882073081 
-0.74869988641 -0.56927770483 0.33966362019 -0.74869988641 -0.56927770483 0.33966362019 
FrenetBinormal 3 128 double
0.037849930485 -0.98833667977 -0.14750589878 0.037849930485 -0.98833667977 -0.14750589878 0.050510669952 -0.98928019101 -0.13701596951 
0.070668764012 -0.99034249633 -0.1192797793 0.098315730807 -0.99081561202 -0.092835553799 0.13326151991 -0.9895103948 -0.05577226807 
0.17474960946 -0.98459380141 -0.0061335323481 0.22106609572 -0.97356589219 0.05743896656 0.26921525836 -0.95360666124 0.13474969503 
0.31502555709 -0.92247376737 0.22316148165 0.35394040504 -0.87976472636 0.31739599231 0.38240328122 -0.82770338401 0.41070042441 
0.39897429383 -0.77068906464 0.49684794304 0.4044773818 -0.71372769601 0.57183111455 0.40120525141 -0.66090266381 0.63422552394 
0.39192893729 -0.61477609314 0.68442827485 0.37926207417 -0.57652102692 0.72372908233 0.36552464925 -0.54658033166 0.75341998369 
0.35289360298 -0.52514263671 0.774397389 0.34369440424 -0.51248038642 0.78691677452 0.34080207728 -0.50917673542 0.79031196133 
0.34784884361 -0.51593066916 0.78282611519 0.36920602208 -0.53310187781 0.76124194651 0.40912816275 -0.55959413867 0.72074166413 
0.46944114747 -0.59117194197 0.65585116001 0.54578010993 -0.6194069019 0.56432185983 0.62595711411 -0.63450796034 0.45340637352 