# vtk DataFile Version 4.2
vtk output
ASCII
DATASET POLYDATA
POINTS 128 float
0 0 0 -0.277041 0.193599 -0.00856773 -0.84597 0.524322 -0.00720058 
-1.37511 0.678157 0.0365412 -1.84531 0.651031 0.113672 -2.31785 0.522856 0.203692 
-2.77447 0.312902 0.292959 -3.18356 0.0273746 0.37024 -3.55037 -0.312704 0.426795 
-3.88823 -0.684909 0.454758 -4.20015 -1.07983 0.447088 -4.4857 -1.4916 0.396835 
-4.74245 -1.91306 0.296335 -4.96663 -2.33627 0.138452 -5.15062 -2.7515 -0.0800489 
-5.28621 -3.14868 -0.359541 -5.36892 -3.51917 -0.691709 -5.39667 -3.85615 -1.06502 
-5.37399 -4.16024 -1.46628 -5.30787 -4.43526 -1.88251 -5.20641 -4.68864 -2.30519 
-5.07779 -4.92899 -2.72787 -4.92832 -5.16415 -3.14642 -4.76342 -5.40165 -3.55768 
-4.58763 -5.64872 -3.95884 -4.40524 -5.91255 -4.3468 -4.22112 -6.20063 -4.71555 
-4.04053 -6.52102 -5.05738 -3.86949 -6.88483 -5.36143 -3.71615 -7.30287 -5.61112 
-3.60259 -7.77318 -5.75672 -3.55507 -8.28099 -5.73929 -3.58149 -8.75699 -5.55099 
-3.67831 -9.1158 -5.21286 -3.8219 -9.34802 -4.77939 -3.98171 -9.47905 -4.315 
-4.14455 -9.53319 -3.84295 -4.30547 -9.53315 -3.36697 -4.46004 -9.49356 -2.8895 
-4.60406 -9.42511 -2.41212 -4.73338 -9.33807 -1.93415 -4.84358 -9.24277 -1.45351 
-4.92783 -9.15147 -0.966096 -4.9774 -9.07928 -0.467726 -4.97749 -9.05859 0.0356508 
-4.9121 -9.1288 0.531075 -4.78853 -9.30089 0.992209 -4.62767 -9.56753 1.38792 
-4.44952 -9.90511 1.71891 -4.27246 -10.2819 2.0044 -4.10432 -10.682 2.25781 
-3.94635 -11.0996 2.48854 -3.79927 -11.5303 2.70271 -3.66347 -11.9706 2.90421 
-3.53847 -12.4184 3.0956 -3.42323 -12.8724 3.27848 -3.31613 -13.3311 3.45412 
-3.2151 -13.7936 3.62355 -3.11751 -14.2586 3.78789 -3.02024 -14.725 3.94834 
-2.91961 -15.1915 4.10646 -2.8115 -15.6566 4.26414 -2.69168 -16.1181 4.42354 
-2.55586 -16.5739 4.58703 -2.40019 -17.0209 4.75691 -2.22126 -17.4558 4.93531 
-2.01675 -17.875 5.12366 -1.78532 -18.2749 5.32265 -1.52669 -18.6522 5.53212 
-1.24154 -19.0041 5.75104 -0.931175 -19.3287 5.97788 -0.597489 -19.6246 6.21062 
-0.242494 -19.8913 6.4472 0.131703 -20.1284 6.68552 0.523111 -20.3361 6.9237 
0.92987 -20.5142 7.16008 1.3501 -20.6625 7.39337 1.78187 -20.7809 7.62269 
2.22306 -20.8689 7.84767 2.67128 -20.9265 8.06852 3.12398 -20.954 8.28601 
3.57837 -20.953 8.50154 4.03197 -20.9263 8.71702 4.48261 -20.8783 8.93493 
4.92874 -20.8146 9.15787 5.36958 -20.7421 9.38858 5.8047 -20.6679 9.62933 
6.23409 -20.5993 9.88178 6.65759 -20.5428 10.147 7.0748 -20.5045 10.4252 
7.48486 -20.49 10.7161 7.88626 -20.5044 11.0189 8.27691 -20.5524 11.3324 
8.65388 -20.6384 11.6545 9.01356 -20.7662 11.9826 9.35131 -20.939 12.3135 
9.66191 -21.159 12.6432 9.93924 -21.4271 12.967 10.1775 -21.742 13.2799 
10.3718 -22.0995 13.5768 10.5189 -22.4936 13.8537 10.6197 -22.9159 14.1088 
10.6765 -23.3585 14.3416 10.6949 -23.8148 14.5533 10.6805 -24.2794 14.7455 
10.6396 -24.7493 14.9202 10.578 -25.2225 15.0789 10.5008 -25.6983 15.2221 
10.4129 -26.1766 15.3501 10.318 -26.6576 15.4618 10.2195 -27.1417 15.5558 
10.1198 -27.629 15.6295 10.0205 -28.1194 15.6802 9.92255 -28.6121 15.7048 
9.82598 -29.1057 15.7008 9.73008 -29.5982 15.6665 9.63368 -30.0874 15.6011 
9.53495 -30.5714 15.505 9.43228 -31.0482 15.3795 9.32516 -31.5147 15.2281 
9.21241 -31.9697 15.0536 9.09008 -32.4184 14.8533 8.95724 -32.8611 14.6291 
8.82521 -33.2752 14.402 8.69544 -33.6581 14.1769 8.5236 -34.098 13.8837 
8.30507 -34.6012 13.5175 8.19173 -34.8527 13.3287 
LINES 1 129
128 0 1 2 3 4 5 6 7 8 9 10 11 12 13 14 15 16 17 18 19 20 21 22 23 24 25 26 27 28 29 30 31 32 33 34 35 36 37 38 39 40 41 42 43 44 45 46 47 48 49 50 51 52 53 54 55 56 57 58 59 60 61 62 63 64 65 66 67 68 69 70 71 72 73 74 75 76 77 78 79 80 81 82 83 84 85 86 87 88 89 90 91 92 93 94 95 96 97 98 99 100 101 102 103 104 105 106 107 108 109 110 111 112 113 114 115 116 117 118 119 120 121 122 123 124 125 126 127 

CELL_DATA 1
FIELD FieldData 2
Length 1 1 double
57.915898765 
Tortuosity 1 1 double
0.51600388592 
POINT_DATA 128
SCALARS MaximumInscribedSphereRadius float
LOOKUP_TABLE default
0.62 0.778904 0.937808 1.07532 1.21099 1.2268 1.23951 1.24 1.24 
1.24 1.24 1.2403 1.24062 1.2475 1.25501 1.29162 1.33151 1.50095 
1.68726 1.77523 1.84844 1.85103 1.84138 1.78605 1.72166 1.64712 1.5703 
1.56175 1.57037 1.63368 1.71208 1.78655 1.85987 1.86965 1.86269 1.86621 
1.87261 1.92752 1.99705 2.08578 2.18087 2.27816 2.37626 2.39046 2.37139 
2.31575 2.2445 2.22749 2.23421 2.29442 2.37969 2.39778 2.38182 2.32232 
2.23894 2.27858 2.39111 2.51161 2.63722 2.631 2.53383 2.41307 2.27477 
2.20362 2.18617 2.17595 2.17193 2.17021 2.17061 2.1734 2.17854 2.1783 
2.17239 2.14136 2.08189 2.02232 1.96263 1.90962 1.86531 1.81181 1.74546 
1.68391 1.62958 1.61741 1.67358 1.75251 1.87129 2.01536 2.20734 2.34042 
2.35262 2.34026 2.27328 2.24411 2.3061 2.36003 2.39286 2.39291 2.29995 
2.2174 2.16691 2.12035 2.08696 2.04796 1.98819 1.93827 1.92884 1.93648 
2.02321 2.11452 2.22989 2.34599 2.46655 2.5721 2.57173 2.56389 2.4934 
2.41246 2.22469 2.0506 2.05327 2.0641 2.22101 2.37314 2.36437 2.34884 
2.25942 2.17 
TEXTURE_COORDINATES TCoords 2 float
0 0 0.00787402 0 0.015748 0 0.023622 0 0.0314961 
0 0.0393701 0 0.0472441 0 0.0551181 0 0.0629921 0 
0.0708661 0 0.0787402 0 0.0866142 0 0.0944882 0 0.102362 
0 0.110236 0 0.11811 0 0.125984 0 0.133858 0 
0.141732 0 0.149606 0 0.15748 0 0.165354 0 0.173228 
0 0.181102 0 0.188976 0 0.19685 0 0.204724 0 
0.212598 0 0.220472 0 0.228346 0 0.23622 0 0.244094 
0 0.251969 0 0.259843 0 0.267717 0 0.275591 0 
0.283465 0 0.291339 0 0.299213 0 0.307087 0 0.314961 
0 0.322835 0 0.330709 0 0.338583 0 0.346457 0 
0.354331 0 0.362205 0 0.370079 0 0.377953 0 0.385827 
0 0.393701 0 0.401575 0 0.409449 0 0.417323 0 
0.425197 0 0.433071 0 0.440945 0 0.448819 0 0.456693 
0 0.464567 0 0.472441 0 0.480315 0 0.488189 0 
0.496063 0 0.503937 0 0.511811 0 0.519685 0 0.527559 
0 0.535433 0 0.543307 0 0.551181 0 0.559055 0 
0.566929 0 0.574803 0 0.582677 0 0.590551 0 0.598425 
0 0.606299 0 0.614173 0 0.622047 0 0.629921 0 
0.637795 0 0.645669 0 0.653543 0 0.661417 0 0.669291 
0 0.677165 0 0.685039 0 0.692913 0 0.700787 0 
0.708661 0 0.716535 0 0.724409 0 0.732283 0 0.740157 
0 0.748031 0 0.755906 0 0.76378 0 0.771654 0 
0.779528 0 0.787402 0 0.795276 0 0.80315 0 0.811024 
0 0.818898 0 0.826772 0 0.834646 0 0.84252 0 
0.850394 0 0.858268 0 0.866142 0 0.874016 0 0.88189 
0 0.889764 0 0.897638 0 0.905512 0 0.913386 0 
0.92126 0 0.929134 0 0.937008 0 0.944882 0 0.952756 
0 0.96063 0 0.968504 0 0.976378 0 0.984252 0 
0.992126 0 1 0 
FIELD FieldData 7
Curvature 1 128 double
0 0.070555692821 0.13122825483 0.1860281996 0.23096854955 0.26254106185 0.2797873766 0.28526802776 0.28392523555 
0.28075560244 0.27885930761 0.27878406786 0.27893110067 0.27657931755 0.26903612805 0.25459400199 0.23306339656 0.20571901166 
0.17478580207 0.14288572875 0.11309793655 0.090005712858 0.081524794571 0.094738349011 0.1280790783 0.17854268402 0.24815033848 
0.34304627989 0.47013966866 0.62796046371 0.7884091343 0.88632063931 0.86191046513 0.72935852368 0.55891706645 0.40484999157 
0.28409697302 0.19400995037 0.12867592789 0.088260642906 0.082689012933 0.10859912621 0.14725334719 0.18752760599 0.22256676218 
0.24652049098 0.25531004642 0.24835579101 0.22879074237 0.2017685295 0.17222272072 0.1435641533 0.11752598725 0.094609967948 
0.074600666808 0.057070056888 0.041772355271 0.029303147742 0.02260694512 0.025806014817 0.036191629193 0.049275486816 0.063139758532 
0.076945800383 0.090155654813 0.10229024052 0.11303299886 0.12204169632 0.12916116144 0.13428587226 0.13749247933 0.13887810745 
0.13862634281 0.13680188215 0.13356048658 0.12888444626 0.12270689468 0.11500113879 0.10566591871 0.094754242316 0.082366254961 
0.068805006189 0.054675657083 0.04133878833 0.032054125178 0.032560681064 0.043479668827 0.059818429783 0.078502205229 0.098261713765 
0.11845091898 0.1386373943 0.15829810363 0.17681972337 0.19338174281 0.20708243695 0.2168622543 0.22194138016 0.22179320238 
0.21649667821 0.20665406262 0.19331283918 0.17784982436 0.16158281937 0.14573609258 0.13133480991 0.11918985177 0.10977896004 
0.10339774447 0.099894560742 0.098847719184 0.099522633804 0.10117906681 0.10304886903 0.10455773487 0.10519246341 0.10463870093 
0.10268044696 0.099151018476 0.094003322657 0.087182369901 0.078658752882 0.068472211875 0.056679484057 0.043454552668 0.029051892448 
0.01384464027 0 
Torsion 1 128 double
0 0 -0.061089258765 -0.087700147986 -0.11886370213 -0.15445853872 -0.19287534245 -0.22945272579 -0.25608157411 
-0.26380195361 -0.24809821419 -0.21218945125 -0.16459031496 -0.11357755907 -0.063817381754 -0.015952835013 0.032893368835 0.089254097765 
0.16532290138 0.28520324728 0.49414693525 0.83112215294 1.0848700941 0.87773981759 0.53963999662 0.32135899124 0.19623230952 
0.11959738212 0.067487611904 0.028598973894 -0.0020560364898 -0.028104149372 -0.053998651852 -0.084478941612 -0.1239036373 -0.17912936578 
-0.26750897343 -0.43287780897 -0.78389532331 -1.4160051536 -1.4618350127 -0.8122697481 -0.4416762915 -0.27829991224 -0.20113421212 
-0.16210220008 -0.14197986332 -0.13200936975 -0.12749491603 -0.12510291624 -0.12179350331 -0.11415720324 -0.097938083231 -0.067268117336 
-0.012068750379 0.089281164897 0.29144140653 0.72368935141 1.2928767285 0.98095991681 0.47270989647 0.23542240031 0.12991983797 
0.077584534385 0.048181075113 0.03011205976 0.018000420244 0.0093674029372 0.0032103457751 -0.00080487589974 -0.0025317833022 -0.0019621147722 
0.0011119908211 0.006928273879 0.015529687957 0.026901417078 0.041253638115 0.059094910467 0.081974475953 0.11343933131 0.16039523128 
0.23916544859 0.38879150252 0.69573408328 1.189466072 1.1961663872 0.70363823595 0.39274383696 0.2414137971 0.16192245776 
0.11556239641 0.085511257237 0.064429586254 0.049002295571 0.037402648032 0.028740608816 0.022703430477 0.019370819398 0.018846017486 
0.021443414725 0.027657469272 0.038148348893 0.053647879881 0.074727094718 0.10103919338 0.13095525373 0.16074362991 0.1834627307 
0.191537371 0.18128044873 0.1540383796 0.11677615925 0.077382995987 0.040532077903 0.0093549204879 -0.015464396793 -0.034345899384 
-0.047491767182 -0.055506735196 -0.058832085831 -0.058252377518 -0.054582668766 -0.048292660608 -0.03993380516 -0.031036997128 -0.022289490735 
0 0 
Abscissas 1 128 double
0 0.50274811508 1.0054962302 1.5082467607 2.0109974982 2.5137443346 3.0164910699 3.5192400159 4.0219890512 
4.5247363325 5.0274835127 5.5302325194 6.0329816658 6.5357300095 7.0384782767 7.541225751 8.0439731358 8.5467224732 
9.0494720646 9.552220999 10.054969835 10.557715096 11.060459737 11.563209071 12.065959336 12.568707202 13.07145453 
13.574201807 14.076949071 14.579696159 15.0824432 15.585192805 16.087943153 16.590693029 17.093442783 17.596190177 
18.09893692 18.601684286 19.104431839 19.607181368 20.109931551 20.612680211 21.115428318 21.618176454 22.120924601 
22.623672481 23.126420246 23.629173037 24.131928028 24.634669311 25.137404169 25.640145853 26.142890997 26.645644899 
27.148403603 27.651150159 28.153889515 28.656640819 29.159399765 29.662140513 30.164868708 30.667612245 31.170367189 
31.673130922 32.175901685 32.678663045 33.181416331 33.684152238 34.186872144 34.689606041 35.192353741 35.695106177 
36.197863616 36.700618464 37.203370377 37.706121319 38.208871081 38.711619178 39.214365102 39.717112084 40.219860546 
40.722608756 41.225356587 41.728105665 42.230856769 42.733606792 43.236354924 43.739103508 44.241852949 44.744602994 
45.247354276 45.750106338 46.252860136 46.755612582 47.258361766 47.761105447 48.263834736 48.766561283 49.269280052 
49.772015005 50.27479983 50.777574627 51.280315742 51.783059433 52.28581266 52.788560384 53.291285448 53.794017836 
54.296784165 54.799545669 55.302281785 55.805023485 56.30779899 56.810571877 57.313326294 57.81607719 58.318798611 
58.821524551 59.324296679 59.827065809 60.329796257 60.832526753 61.335258114 61.837990181 62.340745942 62.843500759 
63.346245234 63.84898971 
ParallelTransportNormals 3 128 double
-0.0061358492283 0 0.9999811755 0.054552777598 -0.020700394573 0.99606363979 0.11524140442 -0.041400789146 0.99214610408 
0.1584675858 -0.038292643084 0.98575404429 0.20019729588 -0.033144187273 0.97914992632 0.19895271893 -0.034331101185 0.97940365581 
0.1965941853 -0.035682237191 0.9798351508 0.16802822806 -0.06384439023 0.98281446073 0.1384021519 -0.093091078214 0.98589683256 
0.094816010112 -0.15155513094 0.9809958368 0.050424811532 -0.21170410682 0.97563445179 0.00016570779829 -0.29990118321 0.94780822777 
-0.050541998602 -0.39024254317 0.91826456177 -0.090633073391 -0.4920251942 0.85630836343 -0.1297131793 -0.59489734231 0.79126568127 
-0.14406375385 -0.67790987485 0.71160949436 -0.15562332631 -0.75868102933 0.63030401123 -0.15094756735 -0.80563656099 0.5681026609 
-0.14415851895 -0.84819044559 0.50838802064 -0.13770319411 -0.86576563294 0.48032638503 -0.13129791661 -0.87959485305 0.45701163905 
-0.13280623511 -0.87788082429 0.46000396642 -0.13568497513 -0.87347512381 0.46755196979 -0.14913706182 -0.85359630735 0.49721978093 
-0.16468549236 -0.83064968531 0.53127321611 -0.1941243497 -0.77937554261 0.58882983303 -0.22668224024 -0.72174058187 0.65166398426 
-0.27658666571 -0.5925912113 0.73535686002 -0.33085150972 -0.44546518082 0.82429301748 -0.37555957319 -0.15258040653 0.85286528177 
-0.41763223183 0.18049921113 0.86479142818 -0.38667091511 0.48071082048 0.70444996204 -0.33460071828 0.77142264779 0.49431829396 
-0.2761212785 0.88846278098 0.30755532211 -0.21595544321 0.9598065396 0.12694110525 -0.17774965924 0.97896769718 0.012854124411 
-0.14560623667 0.98372316043 -0.082867136691 -0.12744782823 0.98070076198 -0.1404607315 -0.11350385074 0.9753344788 -0.18656442609 
-0.10956309654 0.9736307244 -0.20007868369 -0.10893465437 0.97313972293 -0.20280178109 -0.11399206647 0.97938208361 -0.15155359968 
-0.12111584001 0.98807149259 -0.080691097396 -0.1087529035 0.9732274634 0.076711489959 -0.088658932441 0.94904692626 0.26844744531 
-0.040050672901 0.87093803996 0.44699489744 0.020734656624 0.76979897065 0.61991017935 0.065688176304 0.68370822389 0.71903047312 
0.10371217874 0.60420406524 0.78585100787 0.1277094478 0.54812130877 0.82492900026 0.14513108884 0.503018331 0.85100149564 
0.15690670952 0.46904102835 0.86857893936 0.16582080902 0.4407024505 0.88185091326 0.17231863215 0.4177906593 0.89180863172 
0.17749142818 0.39785478569 0.89994889324 0.1813046892 0.38199464134 0.9061023119 0.18431233642 0.36854963427 0.91107839568 
0.18620356951 0.35994452428 0.91418694736 0.18738055511 0.35443583187 0.91610070934 0.18707497287 0.3554992785 0.91574678844 
0.18574672751 0.36109613262 0.91382863852 0.18189398472 0.3743576085 0.90906922034 0.17616464852 0.39331660604 0.9021977361 
0.16652990193 0.41884747508 0.89207678906 0.15377191137 0.44963401662 0.87935717401 0.13661291121 0.48327152228 0.86379526553 
0.11567496319 0.51935702186 0.84579280828 0.091487078172 0.55411650768 0.82631376486 0.064307257195 0.58765524731 0.80547535625 
0.035861953294 0.61756977464 0.78472652117 0.0061681156736 0.64390863045 0.76406605992 -0.023391183223 0.66648749068 0.74436936672 
-0.052808299505 0.68509272918 0.72569119858 -0.08196272832 0.70085398149 0.70792926472 -0.11081968728 0.71339467598 0.69120488355 
-0.14029254518 0.72394993437 0.67478871661 -0.17051333009 0.73209414579 0.65874683469 -0.20208871194 0.73849573925 0.64251184805 
-0.23542939897 0.74262636013 0.62602520814 -0.26935307085 0.74497736832 0.60948192538 -0.30409272793 0.7448375097 0.59285936147 
-0.33687559009 0.74352003076 0.57703850039 -0.36671319235 0.74043006262 0.56242431827 -0.39200997968 0.73745159471 0.54975557562 
-0.40994281524 0.73465394951 0.54024180021 -0.42249385283 0.73270608566 0.53350975133 -0.42561919602 0.73224653096 0.53164962523 
-0.42410848743 0.73221163149 0.53283081944 -0.41381295471 0.7329814084 0.53977499157 -0.39990917862 0.733089235 0.54977624413 
-0.37859980671 0.73183846798 0.56605188002 -0.35478728083 0.72860227375 0.58517808955 -0.32540725334 0.720950103 0.61064452964 
-0.29482396368 0.7100346795 0.63845102348 -0.26133855112 0.69124868491 0.67190144404 -0.22844806112 0.6685581885 0.706516797 
-0.19711396031 0.63565304422 0.74417975372 -0.16835214901 0.6001051003 0.78098240987 -0.14689047144 0.55705691556 0.81534354102 
-0.12851546258 0.51440376891 0.84725226526 -0.11965214448 0.47296794761 0.87160380141 -0.11262226115 0.43350227584 0.89378867849 
-0.11175106605 0.40065453064 0.90869553402 -0.11159700376 0.36914517128 0.92247989005 -0.11409642395 0.3425880095 0.93211085542 
-0.11695581783 0.31605359234 0.94135798676 -0.12129751506 0.28961283325 0.94902456239 -0.12600970547 0.26204449956 0.95659441369 
-0.13243866423 0.22925128042 0.96371606973 -0.13925577096 0.19470686532 0.97061621855 -0.14811580544 0.15094543217 0.97635051499 
-0.15725207481 0.10565585263 0.9814713478 -0.16806072716 0.051114559817 0.98287814535 -0.17896781329 -0.0039452629382 0.98341512064 
-0.19056906647 -0.062661822086 0.97781800325 -0.20214547481 -0.1208784622 0.97153199117 -0.21351387615 -0.17490965835 0.9594783848 
-0.22481533346 -0.22807592744 0.94712272981 -0.23543258372 -0.27240213871 0.93167996219 -0.24598437442 -0.31600882498 0.91619653456 
-0.25569141164 -0.35033006646 0.9001883908 -0.26532388598 -0.38414527332 0.88427563113 -0.27362268995 -0.40890928238 0.87006896093 
-0.28193639938 -0.43359473732 0.8558410028 -0.29075029663 -0.45564412403 0.84089867802 -0.29882635298 -0.47584768266 0.82720722535 
-0.29882635298 -0.47584768266 0.82720722535 -0.29882635298 -0.47584768266 0.82720722535 
FrenetTangent 3 128 double
-0.99638847933 -0.0038136561161 0.084826023583 -0.99638847933 -0.0038136561161 0.084826023583 -0.99550474461 -0.047474765246 0.081953951197 
-0.99047965322 -0.1150831398 0.075537589882 -0.97738240795 -0.2017238195 0.063491174727 -0.95282700805 -0.30035761591 0.04365770596 
-0.91520445147 -0.40273480392 0.014334912905 -0.86507249393 -0.50100446015 -0.025379344837 -0.80450419758 -0.58912401912 -0.075537316381 
-0.73595123698 -0.6633421061 -0.13547334448 -0.66138090994 -0.72180169821 -0.2039058617 -0.58203823122 -0.76383399458 -0.27890702056 
-0.49872706425 -0.78945871216 -0.35780757003 -0.41231451406 -0.79928167754 -0.43720194584 -0.32415714131 -0.79469513525 -0.5132073555 
-0.23624687399 -0.77811716834 -0.5819974973 -0.1510176983 -0.75300744824 -0.6404478415 -0.070919640286 -0.72355275344 -0.68661620838 
0.0020162310327 -0.69412814678 -0.71984863038 0.066423343372 -0.66876011765 -0.74050512793 0.12161846167 -0.65077602187 -0.7494661561 
0.16744358348 -0.642680375 -0.74761258814 0.20403153669 -0.64619510989 -0.73539310032 0.23157419963 -0.6623657704 -0.71249208857 
0.25010036672 -0.69164236693 -0.67755490024 0.25926909824 -0.73383391593 -0.62790709387 0.25815195857 -0.78779352912 -0.55923065167 
0.24501512162 -0.85057324524 -0.46528780842 0.21722742636 -0.91566655069 -0.3381819232 0.17177002707 -0.97026158053 -0.17055064685 
0.10734554499 -0.99349344867 0.038048671824 0.028401122227 -0.96206754174 0.27132899105 -0.052695717585 -0.86738327967 0.49484281091 
-0.12124948678 -0.72775187184 0.67503761006 -0.16902357239 -0.57545772905 0.80017462723 -0.19578877362 -0.4356151315 0.87858193319 
-0.20507501738 -0.31999011592 0.92495976289 -0.20064976527 -0.23160568564 0.95189205169 -0.1853047344 -0.16988858891 0.96788430237 
-0.16083586327 -0.13343059835 0.97792029354 -0.12836961075 -0.12098048037 0.98431954487 -0.088756331085 -0.13153953914 0.98732956166 
-0.042977472093 -0.16399234814 0.98552495993 0.0074460360568 -0.2164716822 0.97626050179 0.060140508294 -0.28565422762 0.95644382036 
0.11187708425 -0.36637316061 0.92371761118 0.1590487108 -0.45202414498 0.87771161548 0.19853468206 -0.53582760332 0.82065386098 
0.22850887703 -0.61235776458 0.75683661465 0.24872505146 -0.6784662241 0.69124484196 0.26023054361 -0.73323097786 0.62821365576 
0.26481562177 -0.77726385261 0.57073075078 0.26452361578 -0.8119206459 0.52039611975 0.26134867652 -0.83872955199 0.47773382536 
0.25709688152 -0.85908046874 0.44258551913 0.25334780681 -0.87410375798 0.41443637519 0.25145290974 -0.88465169417 0.3926357271 
0.2525397806 -0.89131783302 0.37653177788 0.25751608035 -0.89446604552 0.36553517174 0.26706744767 -0.89425825833 0.35913388283 
0.28165338997 -0.89067885423 0.35687889618 0.30150033981 -0.88356236432 0.35835051759 0.32659541915 -0.87262855652 0.36311821014 
0.35668614177 -0.85752549306 0.37070881433 0.39128790776 -0.83788448491 0.38058292551 0.42969619622 -0.81339006957 0.39211959105 
0.47102892241 -0.7838360158 0.4046391659 0.5142768783 -0.74917722763 0.41743595203 0.5583645659 -0.7095661903 0.42981953553 
0.60222397229 -0.66535384724 0.44116951976 0.64485768353 -0.61706730506 0.45098393433 0.6853861574 -0.56536541383 0.45892021538 
0.72307281017 -0.5109966239 0.46480981224 0.75732361316 -0.45477255836 0.46866071428 0.78768472054 -0.39754290552 0.47065105895 
0.81383732253 -0.34018476254 0.47110841617 0.83558306278 -0.2836338012 0.47048146831 0.85285547399 -0.22887729397 0.46931090418 
0.86572589757 -0.17695874603 0.46819255919 0.87440701757 -0.12896155988 0.46774061582 0.87924334988 -0.085970307381 0.46855121164 
0.88068703288 -0.049038485971 0.47115345378 0.87925055091 -0.019140747435 0.47597489484 0.8754436431 0.0028669914346 0.48331170905 
0.86970623075 0.016260548082 0.4933018009 0.8623420124 0.020463401681 0.50591254466 0.85346658931 0.015051361299 0.52093016562 
0.84297085119 -0.00025429043509 0.53795918003 0.83050240346 -0.025573137975 0.55642768844 0.81547150821 -0.060846575581 0.57559005685 
0.79707789866 -0.10578826446 0.59453819606 0.77436346035 -0.15984142031 0.61221887559 0.74629383582 -0.2221101422 0.62746521445 
0.71187767153 -0.2912848642 0.63904875296 0.67032548264 -0.36560189608 0.64575459806 0.621224631 -0.44285295358 0.6464992029 
0.56471684897 -0.52046969827 0.6404733981 0.50161645106 -0.59572925993 0.62728588769 0.43342028833 -0.66605496534 0.6070565351 
0.36218177411 -0.72933260993 0.58042941569 0.29025259913 -0.78417556968 0.54847251946 0.21998381523 -0.83003441693 0.51249389045 
0.15343315331 -0.86715692923 0.47381127842 0.092181713455 -0.89640006449 0.43355444421 0.037271957414 -0.91897812453 0.39254300125 
-0.010782531331 -0.93622165134 0.35124458228 -0.051922770128 -0.94938569895 0.30979157601 -0.086428169152 -0.95951851776 0.26805668365 
-0.11483495877 -0.96739408126 0.22574681346 -0.13785412871 -0.97349344081 0.18250139697 -0.15629050456 -0.97802482042 0.13798814744 
-0.17100002092 -0.98096697984 0.091993354675 -0.18284339456 -0.9821354214 0.044478164186 -0.19263639581 -0.9812603772 -0.0043921699751 
-0.20112765133 -0.9780622249 -0.054239764941 -0.20895311028 -0.97232667585 -0.1044960915 -0.21660983963 -0.96396524529 -0.15443828298 
-0.22444464932 -0.95305394676 -0.20325544016 -0.23263487235 -0.93985813264 -0.25009539516 -0.24119096684 -0.92483322996 -0.29412652766 
-0.24996827634 -0.90860834804 -0.3345844149 -0.2586946507 -0.89195936164 -0.37079047302 -0.26701094828 -0.87576378711 -0.40217277716 
-0.2745089266 -0.86094615778 -0.42827159912 -0.28077841765 -0.84841065244 -0.44873471562 -0.28546317068 -0.83896098371 -0.46330901782 
-0.28829128423 -0.83322417495 -0.47183218386 -0.28829128423 -0.83322417495 -0.47183218386 
FrenetNormal 3 128 double
-0.00059000587881 -0.99865582621 -0.051828492887 -0.00059000587881 -0.99865582621 -0.051828492887 0.041426348224 -0.99639829453 -0.073988487771 
0.10647500343 -0.98826727794 -0.10950278989 0.18969112707 -0.96896698777 -0.15849369995 0.28400774536 -0.93305342115 -0.22079609111 
0.38092395789 -0.8761537347 -0.29538376981 0.4719957756 -0.79576209282 -0.37945049671 0.55048250398 -0.69182072489 -0.46728267401 
0.61276389031 -0.56752248499 -0.54994421877 0.65916262825 -0.42963239577 -0.61718768136 0.69339089454 -0.28702985484 -0.66092581263 
0.72038985141 -0.14798529998 -0.6775978254 0.74407327603 -0.018530175033 -0.66784099344 0.7665411762 0.097266581371 -0.63478645019 
0.78876337679 0.19623066378 -0.58253400075 0.81180013789 0.27521784482 -0.51501036302 0.83781425937 0.33035550558 -0.43466367082 
0.8703693347 0.35566964778 -0.34052360104 0.91329534205 0.33963667303 -0.22480780352 0.96406306284 0.25713070001 -0.066829738726 
0.98395516116 0.061557052568 0.16746035383 0.8491222574 -0.25703058891 0.46143977761 0.53324416417 -0.52614070771 0.66243989695 
0.24446646879 -0.63201120693 0.73538967898 0.054532593114 -0.63797822059 0.76812107531 -0.069023800321 -0.59241163482 0.80267314015 
-0.15601843021 -0.50825256268 0.84695783954 -0.22232359967 -0.38376094965 0.89626990943 -0.2738917818 -0.21333329566 0.93780178973 
-0.30921301667 0.0030107817207 0.95098803647 -0.32191178936 0.24817478044 0.91366409485 -0.30651149532 0.48566061513 0.81864795251 
-0.26452524517 0.67915224541 0.68467409928 -0.20200667302 0.81484714811 0.54333914755 -0.12190511993 0.89978367652 0.41896118818 
-0.018109463039 0.94612428551 0.32329689716 0.13034590932 0.95670214408 0.26025170784 0.37023520772 0.90029290636 0.22890734746 
0.74557045841 0.63281756625 0.20896559379 0.99104700547 0.021083272313 0.13183826676 0.89156853407 -0.45244974203 0.019869071284 
0.74609754095 -0.66131023487 -0.077506339389 0.63581775432 -0.75249795516 -0.17170501093 0.54925167504 -0.79061017195 -0.27066243455 
0.47299519126 -0.79786639095 -0.37374425915 0.39927985989 -0.78362771899 -0.47592351435 0.32476976367 -0.75404815682 -0.5709080292 
0.24884070563 -0.714842829 -0.65351207568 0.17237924058 -0.67127169497 -0.720888139 0.097085982003 -0.62746220707 -0.77257070278 
0.025422036082 -0.58602773419 -0.80989210074 -0.038927279767 -0.5481674586 -0.83546220993 -0.090332804788 -0.51401608279 -0.85301081529 
-0.11986117155 -0.48279097847 -0.86749419056 -0.11142829522 -0.45193020754 -0.8850665639 -0.031671571852 -0.41297365982 -0.9101921049 
0.19485208909 -0.33432537578 -0.92209500947 0.63317465009 -0.1295558322 -0.76308921419 0.9328719875 0.14643249674 -0.32910086423 
0.95520897438 0.29547559629 -0.016431288791 0.92061812778 0.36757189781 0.13173140377 0.88685805966 0.41577838242 0.20152200556 
0.85769921402 0.45787086056 0.23389385053 0.83073443512 0.49953177797 0.24565891213 0.80384999069 0.54238760915 0.24421481098 
0.77545324227 0.58659425199 0.23362245737 0.7446809678 0.63151771222 0.21595285445 0.71095917717 0.67627547889 0.19284326552 
0.67405847452 0.71988376307 0.16556732949 0.63387046408 0.76147169149 0.13553264489 0.59041436086 0.80034412183 0.1042121353 
0.5438456804 0.83599997366 0.073047381538 0.4943121792 0.86818614506 0.043683944733 0.44202350763 0.89682789915 0.017746492941 
0.38719269055 0.9219935832 -0.0031069162911 0.33008691744 0.9437926129 -0.017266463536 0.27084214005 0.96235229488 -0.02286035236 
0.20944549586 0.97765894655 -0.017764247847 0.14519559096 0.98940204091 0.0013571344046 0.076122032392 0.99629755621 0.039957673621 
-0.0022247829194 0.99418794128 0.1076354391 -0.10018233673 0.96941553207 0.22404692721 -0.23683582054 0.87424139957 0.42380510778 
-0.41587165697 0.56242169427 0.7146555833 -0.50518653758 -0.032229558978 0.86240815034 -0.45052327735 -0.48114338375 0.75201716791 
-0.38870101968 -0.69160927714 0.60875949691 -0.35628579215 -0.79225776783 0.49536659519 -0.34854317973 -0.84555623533 0.40441600459 
-0.35920074202 -0.87448215282 0.32596900364 -0.38367156744 -0.88801168756 0.25343908753 -0.41888024112 -0.88932703493 0.1834032948 
-0.46201725472 -0.87954384531 0.11376590225 -0.5104390505 -0.85880599235 0.043637635414 -0.56141454615 -0.82709111386 -0.027092374291 
-0.61215102912 -0.78465779249 -0.097894158341 -0.65986246614 -0.73239166578 -0.16788083176 -0.70195463658 -0.67195475308 -0.23608578526 
-0.73634086447 -0.60567800214 -0.30158960366 -0.76140093213 -0.5364293436 -0.36402222444 -0.77607460562 -0.46721534166 -0.42357765643 
-0.77948353487 -0.400914233 -0.48132441933 -0.77078966898 -0.33988624276 -0.53885121154 -0.74870973866 -0.28584630855 -0.59810167624 
-0.71191261113 -0.23947997554 -0.66017404935 -0.65890681435 -0.20053703233 -0.72500117839 -0.58989201715 -0.16753963274 -0.78991004524 
-0.50839258605 -0.13800222516 -0.8499955084 -0.42174090259 -0.10902758056 -0.9001375438 -0.33906097204 -0.078090378572 -0.93751775984 
-0.26877381181 -0.04338377594 -0.96222579786 -0.21489180906 -0.0042225391495 -0.9766287322 -0.17809176206 0.039363101685 -0.98322625601 
-0.15705329402 0.086852214655 -0.98376366859 -0.14861600213 0.13718665643 -0.97933298995 -0.1503237359 0.18924095579 -0.97035593216 
-0.15921473829 0.24163812822 -0.9572155881 -0.17299744136 0.29303863637 -0.94031922392 -0.1892908051 0.34208443912 -0.92040601237 
-0.2063555179 0.38760735964 -0.89843081814 -0.22263495595 0.42857913938 -0.87564467547 -0.2373070026 0.46422519203 -0.85333484495 
-0.24924225679 0.49386551007 -0.83305171231 -0.25832340085 0.51709265722 -0.81601728194 -0.26471828092 0.53364037263 -0.80321366052 
-0.26847607698 0.54332510895 -0.79543599496 -0.26847607698 0.54332510895 -0.79543599496 
FrenetBinormal 3 128 double
0.084909658715 -0.051691361066 0.99504690997 0.084909658715 -0.051691361066 0.99504690997 0.085171363291 -0.070260837702 0.99388593589 
0.087253253212 -0.10041742021 0.99111210845 0.093492806846 -0.14286524161 0.98531650641 0.10705275944 -0.19798135225 0.97434238893 
0.1315209121 -0.26487602926 0.95527113366 0.1699104707 -0.34023113106 0.92486388696 0.22302916601 -0.41751284377 0.88087514234 
0.28791698721 -0.48774530166 0.82414096439 0.35788255264 -0.54260327401 0.75993536932 0.42478296196 -0.57807567943 0.6966978858 
0.48198524602 -0.59569731641 0.64252231856 0.52569164098 -0.6006708188 0.60236439639 0.55437962889 -0.59916513096 0.57763688673 
0.56748546234 -0.59668014792 0.56739144434 0.56406931393 -0.59769132567 0.56972878486 0.5413295405 -0.60608304128 0.58277412061 
0.49239532494 -0.62584759925 0.60486496549 0.40184519115 -0.66136739818 0.63333530375 0.23620194886 -0.71440490793 0.65866096505 
-0.061602655607 -0.76365742638 0.64267600543 -0.48719864945 -0.71858691633 0.4962563044 -0.8136486044 -0.53333623719 0.23136206833 