# vtk DataFile Version 4.2
vtk output
ASCII
DATASET POLYDATA
POINTS 128 float
0 0 0 -0.315136 0.000532662 0.111211 -0.937559 0.00188001 0.328917 
-1.46361 0.00320767 0.508008 -1.90303 0.00133655 0.650565 -2.36986 -0.00534134 0.798638 
-2.85616 -0.00814212 0.963372 -3.32826 0.00131628 1.14507 -3.791 0.016453 1.33334 
-4.25817 0.027973 1.51597 -4.73106 0.0351983 1.68764 -5.20743 0.0401846 1.84644 
-5.68701 0.0451643 1.99707 -6.17007 0.0474489 2.1425 -6.65627 0.0163429 2.2636 
-7.1434 -0.0830349 2.33691 -7.61926 -0.252352 2.35886 -8.06854 -0.481591 2.3331 
-8.47947 -0.763983 2.26265 -8.84298 -1.09326 2.15101 -9.15904 -1.45821 2.00637 
-9.4317 -1.84636 1.83839 -9.66818 -2.24989 1.65386 -9.87671 -2.66322 1.45808 
-10.0635 -3.08292 1.25414 -10.2335 -3.50662 1.04396 -10.3889 -3.93282 0.827737 
-10.5304 -4.36038 0.604738 -10.6564 -4.78818 0.372975 -10.7634 -5.21492 0.129788 
-10.8462 -5.63844 -0.128057 -10.8981 -6.05589 -0.403894 -10.9122 -6.46279 -0.69925 
-10.8819 -6.85386 -1.01432 -10.8043 -7.22449 -1.34589 -10.679 -7.57079 -1.68867 
-10.5093 -7.89231 -2.03653 -10.3007 -8.19085 -2.38289 -10.0579 -8.4708 -2.72273 
-9.78497 -8.73817 -3.05175 -9.48777 -8.99864 -3.3627 -9.17244 -9.25841 -3.64662 
-8.83437 -9.53253 -3.89696 -8.46518 -9.84107 -4.10401 -8.10607 -10.1901 -4.19269 
-7.83197 -10.5723 -4.05029 -7.69031 -10.9317 -3.69772 -7.70314 -11.1823 -3.25298 
-7.84166 -11.3177 -2.78393 -8.04612 -11.3828 -2.32201 -8.29351 -11.3924 -1.88467 
-8.58601 -11.3404 -1.48002 -8.9164 -11.2287 -1.11523 -9.27055 -11.065 -0.796252 
-9.63673 -10.8587 -0.5196 -10.0053 -10.6198 -0.27469 -10.3694 -10.3561 -0.0499068 
-10.7243 -10.0737 0.166999 -11.0652 -9.77762 0.38762 -11.3874 -9.47189 0.623022 
-11.684 -9.16146 0.884761 -11.9459 -8.85236 1.18476 -12.1579 -8.55673 1.53366 
-12.2999 -8.29238 1.94012 -12.3564 -8.07972 2.39635 -12.3177 -7.9407 2.87917 
-12.1906 -7.8816 3.36524 -11.9968 -7.89356 3.83209 -11.7541 -7.96634 4.26744 
-11.4759 -8.08913 4.66903 -11.1715 -8.2549 5.03411 -10.8468 -8.46065 5.35894 
-10.5063 -8.70587 5.63684 -10.1536 -8.99252 5.8578 -9.79826 -9.3211 6.00284 
-9.45649 -9.69002 6.04366 -9.14832 -10.0857 5.96766 -8.8973 -10.4812 5.78141 
-8.71049 -10.8605 5.50626 -8.57524 -11.2214 5.17944 -8.47879 -11.5674 4.8279 
-8.4096 -11.9078 4.46503 -8.35828 -12.2515 4.10201 -8.31807 -12.6066 3.74831 
-8.28249 -12.9808 3.41454 -8.24523 -13.3821 3.11308 -8.19978 -13.815 2.85945 
-8.13945 -14.2795 2.67342 -8.0592 -14.7677 2.57138 -7.95639 -15.261 2.56416 
-7.83025 -15.7415 2.65209 -7.68254 -16.1941 2.82025 -7.51392 -16.6076 3.05323 
-7.32306 -16.9776 3.33691 -7.10832 -17.2999 3.65881 -6.86792 -17.5702 4.00893 
-6.60109 -17.7857 4.37748 -6.3089 -17.9463 4.75463 -5.99313 -18.0537 5.13149 
-5.65661 -18.1127 5.50089 -5.30255 -18.1291 5.85767 -4.93474 -18.1106 6.20017 
-4.55681 -18.0646 6.52835 -4.17198 -17.9976 6.84472 -3.78303 -17.9152 7.15208 
-3.39184 -17.8214 7.45326 -2.99982 -17.7194 7.75062 -2.60757 -17.6112 8.04551 
-2.21516 -17.4989 8.33857 -1.82176 -17.3838 8.62926 -1.42627 -17.2676 8.91666 
-1.02723 -17.1523 9.19945 -0.623205 -17.04 9.47636 -0.213025 -16.9336 9.74647 
0.204131 -16.8358 10.0092 0.628174 -16.7493 10.2645 1.0587 -16.6769 10.5132 
1.49485 -16.6212 10.7571 1.93515 -16.5849 10.9978 2.3766 -16.5689 11.236 
2.81686 -16.5762 11.4742 3.25669 -16.6161 11.7201 3.69268 -16.6929 11.977 
4.1051 -16.7896 12.2272 4.48644 -16.9071 12.4703 4.88568 -17.1293 12.7818 
5.29589 -17.4692 13.1692 5.49217 -17.6553 13.3688 
LINES 1 129
128 0 1 2 3 4 5 6 7 8 9 10 11 12 13 14 15 16 17 18 19 20 21 22 23 24 25 26 27 28 29 30 31 32 33 34 35 36 37 38 39 40 41 42 43 44 45 46 47 48 49 50 51 52 53 54 55 56 57 58 59 60 61 62 63 64 65 66 67 68 69 70 71 72 73 74 75 76 77 78 79 80 81 82 83 84 85 86 87 88 89 90 91 92 93 94 95 96 97 98 99 100 101 102 103 104 105 106 107 108 109 110 111 112 113 114 115 116 117 118 119 120 121 122 123 124 125 126 127 

CELL_DATA 1
FIELD FieldData 2
Length 1 1 double
55.677935498 
Tortuosity 1 1 double
1.4402353901 
POINT_DATA 128
SCALARS MaximumInscribedSphereRadius float
LOOKUP_TABLE default
0.62 0.712666 0.805332 0.865595 0.922978 0.926218 0.927515 0.916106 0.903937 
0.889821 0.875546 0.8742 0.8742 0.910489 0.951391 1.03257 1.11978 1.00463 
0.854932 0.79664 0.755701 0.796591 0.854914 0.800868 0.719821 0.723105 0.749149 
0.828142 0.923086 1.01797 1.11283 1.17518 1.22556 1.2326 1.22224 1.1685 
1.09586 1.04336 1.00039 1.04432 1.13287 1.18858 1.22602 1.24 1.24 
1.32811 1.47286 1.56781 1.6361 1.53676 1.343 1.3401 1.45121 1.52064 
1.56358 1.57989 1.57801 1.5725 1.5643 1.55773 1.55244 1.55 1.55 
1.55 1.55 1.55 1.55 1.52736 1.48254 1.39414 1.26032 1.15177 
1.07137 1.02339 1.01392 1.0625 1.1838 1.33744 1.53262 1.68833 1.79049 
1.84993 1.84686 1.81817 1.74891 1.65843 1.53165 1.37972 1.18169 1.05928 
1.08327 1.11162 1.14892 1.14415 1.04658 0.993488 1.04636 1.10421 1.17492 
1.2301 1.24158 1.26543 1.32757 1.40075 1.51179 1.64566 1.86718 2.04534 
2.03567 1.99699 1.81515 1.65318 1.60439 1.5514 1.47024 1.37682 1.18534 
1.02162 1.1308 1.24028 1.35366 1.45744 1.39301 1.33119 1.34383 1.36277 
1.45638 1.55 
TEXTURE_COORDINATES TCoords 2 float
0 0 0.00787402 0 0.015748 0 0.023622 0 0.0314961 
0 0.0393701 0 0.0472441 0 0.0551181 0 0.0629921 0 
0.0708661 0 0.0787402 0 0.0866142 0 0.0944882 0 0.102362 
0 0.110236 0 0.11811 0 0.125984 0 0.133858 0 
0.141732 0 0.149606 0 0.15748 0 0.165354 0 0.173228 
0 0.181102 0 0.188976 0 0.19685 0 0.204724 0 
0.212598 0 0.220472 0 0.228346 0 0.23622 0 0.244094 
0 0.251969 0 0.259843 0 0.267717 0 0.275591 0 
0.283465 0 0.291339 0 0.299213 0 0.307087 0 0.314961 
0 0.322835 0 0.330709 0 0.338583 0 0.346457 0 
0.354331 0 0.362205 0 0.370079 0 0.377953 0 0.385827 
0 0.393701 0 0.401575 0 0.409449 0 0.417323 0 
0.425197 0 0.433071 0 0.440945 0 0.448819 0 0.456693 
0 0.464567 0 0.472441 0 0.480315 0 0.488189 0 
0.496063 0 0.503937 0 0.511811 0 0.519685 0 0.527559 
0 0.535433 0 0.543307 0 0.551181 0 0.559055 0 
0.566929 0 0.574803 0 0.582677 0 0.590551 0 0.598425 
0 0.606299 0 0.614173 0 0.622047 0 0.629921 0 
0.637795 0 0.645669 0 0.653543 0 0.661417 0 0.669291 
0 0.677165 0 0.685039 0 0.692913 0 0.700787 0 
0.708661 0 0.716535 0 0.724409 0 0.732283 0 0.740157 
0 0.748031 0 0.755906 0 0.76378 0 0.771654 0 
0.779528 0 0.787402 0 0.795276 0 0.80315 0 0.811024 
0 0.818898 0 0.826772 0 0.834646 0 0.84252 0 
0.850394 0 0.858268 0 0.866142 0 0.874016 0 0.88189 
0 0.889764 0 0.897638 0 0.905512 0 0.913386 0 
0.92126 0 0.929134 0 0.937008 0 0.944882 0 0.952756 
0 0.96063 0 0.968504 0 0.976378 0 0.984252 0 
0.992126 0 1 0 
FIELD FieldData 7
Curvature 1 128 double
0 0.00030548915806 0.0011001645343 0.0029332576793 0.0063312962059 0.011825771328 0.019926238489 0.031075765832 0.045618317338 
0.063754311642 0.085483975197 0.11052345237 0.13812500536 0.16688524052 0.19458383341 0.21830360771 0.23497809189 0.24234213118 
0.23983388251 0.228858465 0.21217011082 0.19301742513 0.17418570692 0.15774084918 0.14492039173 0.13631866616 0.13203364651 
0.13169126367 0.13456160357 0.13957307332 0.1453772692 0.15051165698 0.15362280282 0.15378433516 0.15090948079 0.14607380262 
0.14196569806 0.14305391188 0.15557873354 0.18668617406 0.24431464166 0.33984890287 0.4910396985 0.71845686758 1.017068908 
1.2909273559 1.3597791644 1.1755934646 0.89361067585 0.64909441184 0.47320211501 0.35154598106 0.26506171036 0.20047360483 
0.15034274372 0.1123395563 0.089937464637 0.090976697404 0.11560835972 0.15560850333 0.20516668178 0.26086309638 0.31883899638 
0.37338304732 0.41781214062 0.44685642383 0.45957540476 0.4598614619 0.45433617805 0.44927292179 0.44830137613 0.45155616496 
0.45567384485 0.4542929872 0.44027850936 0.40907261747 0.36128863966 0.30238166438 0.23960963563 0.17914584393 0.12541238467 
0.084230517182 0.06942346399 0.089681683211 0.12799803844 0.17208340908 0.21690208213 0.25864406096 0.29333814721 0.31739915906 
0.3288987751 0.32823039494 0.31782169551 0.30091049169 0.28054597206 0.25864244902 0.23641185156 0.21431992978 0.19249224382 
0.17112431323 0.15033307215 0.1303177355 0.11141678261 0.09378682169 0.077649564543 0.063106823943 0.05031621327 0.039491435441 
0.031101536921 0.0260863878 0.025378412158 0.02867322438 0.034581945233 0.041927111607 0.050130828312 0.058947491762 0.068138891544 
0.077282862863 0.085907535491 0.092935897367 0.097294220646 0.09763946375 0.092946741377 0.082593383482 0.066707916966 0.0461662735 
0.022423008449 0 
Torsion 1 128 double
0 0 -0.38227744468 -0.14222314526 -0.048554079927 -0.0068466910436 0.014199479289 0.025354528008 0.031173984364 
0.03398612107 0.034675475217 0.034032725792 0.032517563249 0.030430330173 0.02796023451 0.02517232485 0.022038595811 0.018340315257 
0.013777406745 0.0077812390548 -0.00021981647378 -0.010639703729 -0.02356019933 -0.037894212635 -0.051152399026 -0.059441738118 -0.05915111813 
-0.048861770335 -0.029717929727 -0.004396117174 0.025375025815 0.059945935879 0.10161763024 0.15509971123 0.22727065256 0.325394092 
0.44936956357 0.57327737999 0.63753348949 0.60503137747 0.51161239644 0.41148678512 0.32747493241 0.25969316595 0.2033761044 
0.15833143283 0.12464166103 0.094993294263 0.059637446775 0.01625128097 -0.032434035794 -0.087103608502 -0.15517768617 -0.25498467237 
-0.42409898932 -0.72524794173 -1.1121425011 -1.1037978366 -0.71711494994 -0.42777065795 -0.27225224321 -0.18878750388 -0.14169598415 
-0.11421542507 -0.098163404684 -0.089239610754 -0.084973934898 -0.083495933777 -0.083197720878 -0.082744266468 -0.081428181358 -0.079598567279 
-0.077993925653 -0.078008611823 -0.081545068824 -0.090700207703 -0.1084871152 -0.14079392621 -0.20064275213 -0.31976027426 -0.5866020704 
-1.1946687805 -1.6660796451 -0.98438474521 -0.49919708921 -0.29998657002 -0.21475358612 -0.17727685223 -0.1628324472 -0.16075537314 
-0.16537121544 -0.17277822541 -0.17987576235 -0.18412717149 -0.18359211715 -0.17784233335 -0.16749402915 -0.15392248202 -0.13888605552 
-0.12415510718 -0.1114374101 -0.10233594163 -0.099006539013 -0.10469884587 -0.12408627003 -0.16560940505 -0.24266123847 -0.37679884803 
-0.58409981952 -0.79909146188 -0.8205097465 -0.64150881948 -0.46088033931 -0.34508911625 -0.27629886501 -0.23183039562 -0.19920394439 
-0.17149946478 -0.14567857024 -0.12172658215 -0.099562865663 -0.079781934441 -0.062200266508 -0.047098672857 -0.033957076382 -0.022539999535 
0 0 
Abscissas 1 128 double
0 0.50249105395 1.0049821079 1.5074711871 2.0099600908 2.5124545611 3.0149492313 3.5174388321 4.0199281292 
4.5224198534 5.0249117766 5.5274007772 6.0298894736 6.5323818097 7.0348746084 7.5373641902 8.0398532904 8.5423447969 
9.0448367142 9.5473287962 10.04982091 10.552309633 11.054797635 11.557293281 12.059790764 12.562282047 13.064771656 
13.567261466 14.069751336 14.572239041 15.074726022 15.577218644 16.07971334 16.582205743 17.084697225 17.587190602 
18.089684805 18.59216916 19.094648859 19.597137488 20.099630702 20.602122698 21.104614017 21.607104886 22.109595488 
22.612093851 23.114597203 23.617093696 24.119586515 24.622077886 25.124568442 25.627062916 26.12955973 26.632043039 
27.134517768 27.637002828 28.139494942 28.641998903 29.144511601 29.647005466 30.149484346 30.651970468 31.154462788 
31.656953483 32.159442702 32.661926019 33.164403796 33.666894675 34.169398395 34.671889477 35.17436739 35.676861973 
36.179375123 36.681872881 37.184352361 37.686836069 38.189325072 38.691819834 39.194321989 39.696808046 40.199272259 
40.70175456 41.204263331 41.706771275 42.209277907 42.711775708 43.214258393 43.716742631 44.219229717 44.721711946 
45.224184773 45.726672448 46.229190634 46.73169338 47.234162077 47.736638129 48.239131702 48.741626188 49.244123034 
49.746618286 50.249109052 50.751599463 51.254088779 51.756576968 52.259061286 52.761549544 53.264052927 53.766553599 
54.269042526 54.771531651 55.27402176 55.776510741 56.278993293 56.78147682 57.283966858 57.78645856 58.288963557 
58.791465538 59.293937873 59.796413058 60.298924149 60.801433369 61.303909789 61.806386173 62.308861516 62.811338563 
63.313835781 63.816332999 
ParallelTransportNormals 3 128 double
0.33084456627 0 0.9436852616 0.32335549314 4.201802429e-06 0.94624177195 0.31586642002 8.4036048579e-06 0.9487982823 
0.31410155755 2.7714283675e-06 0.94938851291 0.31284552151 -3.7348928328e-06 0.94980396044 0.33961255144 -0.00023411350399 0.94009200157 
0.36738573891 -0.00047253016474 0.93001642201 0.3604281151 -0.0002891988372 0.93273587399 0.35139025099 -8.0606448115e-05 0.93622169852 
0.33039491629 0.00023538400145 0.94355259217 0.30841989945 0.00056017363313 0.95119851444 0.28508468757 0.00028427693777 0.95818722416 
0.26160788006 -5.4150908765e-05 0.96510751838 0.18582374728 -0.012430466195 0.97882278537 0.10338960378 -0.026337199644 0.9934019207 
0.024038344694 -0.059101148927 0.9942146882 -0.05485141035 -0.094688000418 0.99296664723 -0.11524824964 -0.13976269239 0.98060085522 
-0.17248784507 -0.18645721687 0.96633696063 -0.20603043851 -0.22553459398 0.95089990755 -0.23507425373 -0.26316588703 0.93524013516 
-0.25046961714 -0.28881123641 0.92361287719 -0.26295708931 -0.31190290268 0.91284477258 -0.27054139081 -0.32871933508 0.90466897992 
-0.2769474851 -0.34402786039 0.89711610676 -0.28298822006 -0.3610793248 0.88832804845 -0.28893035205 -0.37860117259 0.87920663909 
-0.29611064353 -0.40531617006 0.86422068259 -0.30366393363 -0.4348006266 0.84746801675 -0.31028168765 -0.47778793801 0.819963639 
-0.31658686919 -0.52528669574 0.78886700082 -0.31576265775 -0.58125790575 0.74638427071 -0.31231519885 -0.6403465395 0.69971204834 
-0.29939183741 -0.6938020199 0.65119024588 -0.28266193191 -0.74499461858 0.60192545266 -0.263846953 -0.78158667668 0.56324101613 
-0.24412314998 -0.81181477502 0.5291682557 -0.23182900217 -0.82765536821 0.51087246571 -0.22304717197 -0.83669436878 0.50003512835 
-0.23219073924 -0.8294384471 0.50729927312 -0.25053755729 -0.81381639262 0.52385707398 -0.31893658494 -0.75289124965 0.56092571962 
-0.41519051915 -0.66675416686 0.60940899947 -0.59139610242 -0.44257575934 0.56607170076 -0.81526097892 -0.13611071918 0.4680000228 
-0.91187656386 0.095507734627 0.25925072771 -0.92668426432 0.27900772101 -0.020652611587 -0.89192178935 0.36218286671 -0.21906206646 
-0.83060360689 0.39161204319 -0.37381366178 -0.75508275042 0.39395505118 -0.50584372503 -0.67156106839 0.38103954453 -0.6250740145 
-0.5884887395 0.35325224618 -0.7186409449 -0.50568485168 0.31658062181 -0.79687672668 -0.4457807371 0.28473224576 -0.84667624987 
-0.40042435288 0.25594797498 -0.87841083337 -0.37993126226 0.2426221202 -0.89261723695 -0.37641433216 0.23985096328 -0.8948557492 
-0.3927497056 0.25555556767 -0.88231013651 -0.42372117447 0.28488141281 -0.85886493915 -0.47003357213 0.3365878279 -0.80934628132 
-0.52855318596 0.40610310314 -0.73908022464 -0.58452512919 0.49272912366 -0.62015067825 -0.63831703585 0.59399677426 -0.4595798823 
-0.65563115547 0.67611231764 -0.26650711632 -0.63983604605 0.74084436394 -0.043933789677 -0.59772341978 0.77119506593 0.15064261669 
-0.5309151914 0.76928330169 0.31894751699 -0.46130482488 0.75240420589 0.45580337856 -0.3889483627 0.72085712374 0.56183917912 
-0.31277858418 0.67961195484 0.65483444498 -0.23263495422 0.62826042377 0.73424018848 -0.13756600689 0.55721391298 0.80744308938 
-0.025872465552 0.46423011046 0.8737369419 0.10529312123 0.33589662509 0.91564312348 0.25958234767 0.16558432807 0.92858821225 
0.39492648992 -0.0075552354653 0.89946883139 0.50654553146 -0.1842354105 0.81767173381 0.58380994569 -0.32114438451 0.73917772875 
0.61697108097 -0.40699647011 0.66492411931 0.63818206401 -0.46647382303 0.61182273676 0.64317590227 -0.49015892409 0.58742632127 
0.64525157558 -0.49681420677 0.58000497316 0.64305699156 -0.4785491343 0.59742386106 0.63888290243 -0.43996601538 0.62730333699 
0.63157351383 -0.36920153947 0.67691889498 0.61961878118 -0.27303205734 0.72659116691 0.59971391302 -0.13338393506 0.77636050025 
0.57316121948 0.018641229065 0.80769843741 0.5344226706 0.19335423958 0.80525054025 0.49257727822 0.35604139222 0.78521367315 
0.4447162328 0.49544337188 0.73112000846 0.39527459686 0.6207274456 0.66976400822 0.3425853848 0.71700402278 0.59348637763 
0.2873618655 0.80313041785 0.5141337412 0.2265489653 0.86687072145 0.42799922031 0.1647739872 0.92136719632 0.34352321061 
0.1007071775 0.95384331433 0.26299805388 0.038769486999 0.97968127767 0.18802724967 -0.017673533461 0.98838799274 0.127390699 
-0.069882354405 0.99419024906 0.072928584344 -0.11017922281 0.99182147457 0.035836834143 -0.14658665561 0.98897150448 0.0029231053703 
-0.17096640871 0.9846334865 -0.017070521754 -0.19292803996 0.98052734423 -0.034928446787 -0.2065934142 0.97721673692 -0.045459059765 
-0.21890066727 0.97418484614 -0.054913485316 -0.22599355043 0.97222305947 -0.060235997297 -0.23205131344 0.970543573 -0.064776393582 
-0.23362561189 0.97008682669 -0.065929175367 -0.23400342129 0.96996907195 -0.06623799362 -0.2284734896 0.97152510971 -0.062379688058 
-0.2215502489 0.97339579003 -0.057661995741 -0.20668702504 0.97705950875 -0.048046957394 -0.19057452402 0.98084095508 -0.03779104204 
-0.16611465794 0.98540902851 -0.023252942983 -0.14069316358 0.98986341495 -0.0082811812536 -0.10758395521 0.9934089335 0.010157486252 
-0.073609330532 0.99665523277 0.029036884948 -0.03112719927 0.99696004594 0.052248907743 0.012202308239 0.99674991814 0.076027612674 
0.066211174854 0.99005006432 0.10694812982 0.12068806174 0.98267635323 0.13838828029 0.18337248016 0.96348540854 0.17894108504 
0.24661098783 0.94330031772 0.22030801234 0.32564598902 0.89477318025 0.28488470616 0.39852777272 0.85002409082 0.34443382441 
0.39852777272 0.85002409082 0.34443382441 0.39852777272 0.85002409082 0.34443382441 
FrenetTangent 3 128 double
-0.9450554234 0.0015659168799 0.32690640037 -0.9450554234 0.0015659168799 0.32690640037 -0.9451074077 0.0012530711539 0.32675742947 
-0.9452968649 0.00042507460557 0.3262110613 -0.94576689479 -0.0013901981491 0.324843113 -0.94670004534 -0.0048750374259 0.32207958359 
-0.94829095525 -0.010931510568 0.3172140701 -0.95069538588 -0.020669451618 0.30943667694 -0.95395157043 -0.035365090682 0.29786861473 
-0.95787398593 -0.056384709291 0.28159934596 -0.96192631881 -0.085068093044 0.25973289497 -0.96509626855 -0.12256257783 0.23144676914 
-0.96580771149 -0.16959794357 0.19609182022 -0.96193249623 -0.22620590722 0.15335175331 -0.95098289049 -0.29142460623 0.1034564685 
-0.93054431611 -0.36309897799 0.047396286206 -0.89891001792 -0.43794088148 -0.012983220325 -0.8557091861 -0.51197318206 -0.075134876506 
-0.80220372308 -0.58129523776 -0.13625356227 -0.74102947278 -0.6428783087 -0.19386283986 -0.67548228349 -0.69502832947 -0.24629109998 
-0.60868542882 -0.73738490751 -0.29285755397 -0.54298398878 -0.77056567629 -0.333761781 -0.47970207837 -0.79569298312 -0.36980885959 
-0.41918273199 -0.81399995834 -0.40210683286 -0.36099727291 -0.82657252351 -0.43180879139 -0.30419582014 -0.83422899754 -0.45992051778 
-0.24757025717 -0.83748920739 -0.48715582236 -0.18989851764 -0.8366107821 -0.5138296919 -0.13015906595 -0.83167963606 -0.5397847724 
-0.067729711242 -0.82274397452 -0.56436250638 -0.0025350275306 -0.80999276354 -0.58643439245 0.064891122913 -0.79395189629 -0.60450767451 
0.13344882945 -0.77564216153 -0.61690408263 0.20164414108 -0.75664271662 -0.62195774757 0.26783799986 -0.73901875796 -0.61815376826 
0.33049628431 -0.72511434173 -0.60413690293 0.38832252572 -0.71728116512 -0.57854416096 0.44020067955 -0.71761776735 -0.53967406988 
0.48492364751 -0.72774267649 -0.48501510585 0.52063524963 -0.74852241551 -0.41067399518 0.54391207368 -0.77948610293 -0.31074277376 
0.54825214328 -0.81737956619 -0.17694697554 0.52202397746 -0.85293081006 1.4285744944e-05 0.44778876387 -0.86573815452 0.22356804504 
0.31009433463 -0.82373011669 0.47466851431 0.11753869315 -0.7039684525 0.70043777275 -0.08781575628 -0.52472017217 0.84673321292 
-0.26388870583 -0.33219212238 0.90554466746 -0.39636504821 -0.15875572959 0.90426288593 -0.48985406469 -0.013708464426 0.87169666359 
-0.55317569773 0.10491380323 0.82643193388 -0.59361786288 0.20164337601 0.77907495261 -0.61623402827 0.28053474896 0.73590480161 
-0.62436972612 0.344613763 0.70100199676 -0.62015328573 0.39598643164 0.67720355002 -0.60475780827 0.43599382896 0.66646633407 
-0.57851920027 0.46524861522 0.66996959704 -0.54099045358 0.48360593818 0.68808039188 -0.49103827917 0.49011321787 0.7201877825 
-0.42708101575 0.48300599944 0.76439977138 -0.34756788066 0.45988265663 0.81713188071 -0.25176205507 0.41820722759 0.87276490673 
-0.14076025849 0.35621590552 0.92374064449 -0.018303033138 0.2740333227 0.96154601399 0.10929624517 0.17440572562 0.97858927731 
0.23443369955 0.062389280812 0.97012804214 0.35013480246 -0.056035189092 0.93502175252 0.45142729875 -0.17553836892 0.87487123337 
0.53549240692 -0.29226450359 0.79235682749 0.60086085229 -0.4036209647 0.68996837104 0.64642306185 -0.50744345576 0.56977044879 
0.67090483969 -0.60117768071 0.43413372629 0.67314164271 -0.68155254772 0.28699556364 0.65310727591 -0.74516232712 0.13484803441 
0.61310869814 -0.789883079 -0.013507248695 0.55818938008 -0.81626850387 -0.14876271561 0.49519584467 -0.82785228096 -0.26351788617 
0.43103618842 -0.83010266078 -0.35374761743 0.37125002262 -0.8288074443 -0.41863067372 0.31951575034 -0.82881226574 -0.45932549835 
0.27787173385 -0.83345225919 -0.47764487978 0.24723707328 -0.84445185893 -0.47515775017 0.22789204412 -0.86199793371 -0.45279661937 
0.21977892732 -0.88479719767 -0.41089066927 0.22263148896 -0.91009146825 -0.34952645042 0.23593370938 -0.93374725472 -0.2691678827 
0.25879623022 -0.95059888207 -0.17142425915 0.28984073387 -0.95521018409 -0.059714765415 0.32720253916 -0.94301294336 0.0605399622 
0.36871799322 -0.91145161455 0.1824910842 0.41224771591 -0.86058393635 0.29907709577 0.45597193626 -0.79284343378 0.40433758526 
0.49853117628 -0.71217367899 0.49424216456 0.53899391388 -0.62303380907 0.56684604044 0.57671824025 -0.52969644305 0.62194674176 
0.61124235205 -0.43589418688 0.66058992189 0.64224283433 -0.3446828835 0.68462971858 0.66952229121 -0.25846703365 0.69637252537 
0.69303911972 -0.17900851704 0.6983213654 0.7129235364 -0.10746438977 0.69295846642 0.72946251633 -0.04446812291 0.68257382261 
0.7430739463 0.0098176935142 0.66913729774 0.7542610918 0.055582935386 0.65421765697 0.76356503216 0.093244437084 0.63896315748 
0.77152496019 0.12334690179 0.6241272127 0.77864718872 0.14646874064 0.6101274158 0.78537747001 0.16316291313 0.59712653047 
0.79207829735 0.17389997669 0.5851245756 0.79900795882 0.17905198126 0.57404413571 0.80630402454 0.1788786836 0.5638051406 
0.81397057818 0.17353553471 0.55438011873 0.82187368082 0.16309285789 0.54582448872 0.82974357365 0.14755514176 0.5382871744 
0.83718121474 0.12690063118 0.5319998529 0.8436825914 0.10111572187 0.5272336254 0.84866715453 0.07026037661 0.52423996442 
0.85151156334 0.034569511762 0.52319499841 0.85162266397 -0.0054813480572 0.5241266956 0.84853366771 -0.049043916676 0.52686365315 
0.84203567002 -0.094800862472 0.53102610755 0.83232677287 -0.14096091289 0.53606171679 0.82012706787 -0.18532515392 0.54133739929 
0.8066989181 -0.22549202808 0.54625104194 0.79371646797 -0.25911816621 0.5503380274 0.78298776924 -0.28420759435 0.55331383187 
0.77609567362 -0.29931301621 0.55505605458 0.77609567362 -0.29931301621 0.55505605458 
FrenetNormal 3 128 double
-0.084778416688 -0.96695099168 -0.24045456899 -0.084778416688 -0.96695099168 -0.24045456899 -0.16475429644 -0.86540442252 -0.47321370151 
-0.19551307899 -0.80122854211 -0.56551521575 -0.20509108386 -0.77293679332 -0.60042181911 -0.20446717114 -0.76352484111 -0.61255448161 
-0.19680494409 -0.76384725746 -0.61465858918 -0.18253757663 -0.76933871741 -0.6122074575 -0.16110482824 -0.77723791866 -0.60823223534 
-0.13145907963 -0.78569525682 -0.60448446945 -0.092370356406 -0.79321777495 -0.60189141775 -0.042751674675 -0.79815654929 -0.60093129153 
0.018191525253 -0.79882073695 -0.60129402012 0.090543903089 -0.79324166513 -0.60213741149 0.17335833317 -0.77942823977 -0.60202865993 
0.26432745803 -0.75564012721 -0.59928206471 0.35978065916 -0.72091998878 -0.59231093783 0.45509864647 -0.67550942368 -0.5801484642 
0.54555084038 -0.62094511374 -0.56285117597 0.62726032269 -0.55972770753 -0.54152505113 0.69776999702 -0.49449677369 -0.51825666621 
0.75619570903 -0.42744717429 -0.49543613397 0.80281129766 -0.35976578962 -0.47546040525 0.83859160236 -0.29175020846 -0.46004993241 
0.86483888507 -0.22321772586 -0.44969717558 0.88308521672 -0.15416650962 -0.44316270975 0.89526190123 -0.085370667851 -0.43728477824 
0.90362923698 -0.018201796183 -0.42792861167 0.91050896421 0.045726901159 -0.41095313188 0.91766317951 0.10509802598 -0.38320842098 
0.92593744188 0.15882270748 -0.3426590161 0.93542720242 0.20539114682 -0.28773325456 0.94570470109 0.24226901293 -0.21667566477 
0.95574945654 0.26538969185 -0.1269302477 0.96320974225 0.26837484399 -0.014210402402 0.96185375406 0.24217816538 0.12722850317 
0.93714078156 0.17617603246 0.30121281699 0.86415525836 0.065387293623 0.49895910782 0.7226487918 -0.073578288856 0.68728811944 
0.52705628079 -0.19937632835 0.82611183055 0.31889128332 -0.27570931674 0.90680357415 0.12486410216 -0.29100728513 0.94853767242 
-0.054000586082 -0.24573739567 0.96783111599 -0.22623112464 -0.13844534166 0.96418481922 -0.3948542447 0.03287245284 0.91815550278 
-0.54463098421 0.25531522936 0.79886871556 -0.64293180898 0.48360977327 0.59393625601 -0.6691322216 0.66076374207 0.34007844268 
-0.63637899181 0.76546033757 0.095353292519 -0.57074619903 0.81409228771 -0.10724981763 -0.48969111734 0.83156635143 -0.2621068728 
-0.39963771168 0.83701594804 -0.37375660814 -0.29974653132 0.84303557758 -0.44659045208 -0.18200378582 0.8583862611 -0.47963282696 
-0.027938635442 0.88699516849 -0.46093275402 0.19744184978 0.91424902579 -0.35378727337 0.51179424915 0.85392572708 -0.094220481656 
0.77068481796 0.58078512833 0.26217083376 0.83825462495 0.2436568152 0.48781199264 0.82631680444 0.00028452031441 0.56320551999 
0.81191275756 -0.16724916398 0.55930795745 0.80786773884 -0.29549630107 0.50993298834 0.80943932694 -0.4033368458 0.42676382792 
0.80828282504 -0.49745041237 0.31499517772 0.79610143116 -0.57782668335 0.17983001785 0.76651759279 -0.641580234 0.028732965049 
0.7163776305 -0.68568028401 -0.12901797801 0.64574104775 -0.7086637221 -0.28427843433 0.55697312681 -0.71057010459 -0.42996635039 
0.45316677529 -0.69226969497 -0.5616071075 0.33736825406 -0.6544663611 -0.67665090213 0.21224018104 -0.59770308127 -0.77311391928 
0.080568996009 -0.52288421701 -0.84858749253 -0.053932817201 -0.43229807379 -0.9001164517 -0.18652486241 -0.33088415085 -0.92505359543 
-0.31213483724 -0.22650216332 -0.92264219142 -0.42710248914 -0.12896183548 -0.89495938945 -0.53116545219 -0.048470329276 -0.84588054096 
-0.62894066767 0.0047234989728 -0.77743895266 -0.73037930456 0.017727382672 -0.6828116954 -0.84814670992 -0.03398167881 -0.52867041146 
-0.95782206097 -0.20247534246 -0.2039133032 -0.79479028422 -0.45723683966 0.39905247344 -0.33732481866 -0.50612953454 0.79375365258 
-0.044455442892 -0.42983487275 0.90181245044 0.10801539813 -0.33329021543 0.93661641352 0.19473094359 -0.22594075971 0.95447924687 
0.24821379665 -0.10606409652 0.96288125882 0.28265371821 0.025822172353 0.9588743875 0.30483918504 0.16597896686 0.93782943749 
0.31875338046 0.30839822243 0.89626269522 0.32697572409 0.44615320335 0.8330871473 0.33125081905 0.57285936278 0.74973665067 
0.33252460288 0.683635919 0.64966862225 0.33097877354 0.77549294693 0.53764648304 0.32629249991 0.84730194617 0.41906159037 
0.31818293379 0.89958328678 0.29918143457 0.30670177636 0.93412936087 0.18258246776 0.29233329418 0.95353729736 0.072855114117 
0.27607273842 0.96073727557 -0.027707948812 0.25930071321 0.95854623996 -0.11811962574 0.24364641097 0.94932579724 -0.19853704217 
0.23096888668 0.93468886348 -0.27020381543 0.22376690056 0.91499590542 -0.33572439183 0.22519542041 0.88894229966 -0.39883406387 
0.24001418302 0.85210099192 -0.4650990126 0.27502001822 0.79432827446 -0.54167017821 0.33897938471 0.6937823882 -0.63542031332 
0.43707810777 0.50756999552 -0.7425196478 0.54503826454 0.18760644061 -0.81715183021 0.59131608514 -0.21990863509 -0.77587723234 
0.54664028712 -0.55173519217 -0.62989893968 0.46125279873 -0.7528168562 -0.46958773055 0.37110365097 -0.86621634509 -0.33459127863 
0.28426835144 -0.93196112008 -0.22503327538 0.20079165039 -0.97025580618 -0.13522715598 0.1199686036 -0.99087649749 -0.061410918188 
0.041501846544 -0.99913725831 -0.001528330798 -0.033933531518 -0.99842419366 0.044695021627 -0.10590064216 -0.99129063235 0.078281135703 
-0.173424763 -0.97974814228 0.10008710845 -0.23569737296 -0.96533735323 0.11211843221 -0.29137000954 -0.94950649783 0.11636549371 
-0.33909496311 -0.93365212622 0.11536166264 -0.37749772306 -0.91925844765 0.11162157279 -0.40523884025 -0.90791565251 0.10710112174 
-0.42152464494 -0.90088075673 0.10358974783 -0.42152464494 -0.90088075673 0.10358974783 
FrenetBinormal 3 128 double
0.31572593615 -0.25495750153 0.91395503481 0.31572593615 -0.25495750153 0.91395503481 0.28218435412 -0.50107246512 0.81810657924 
0.26112922691 -0.5983582895 0.75748193658 0.2519178994 -0.63448150555 0.73073291364 0.24890198891 -0.64576005685 0.72183221658 
0.24902224434 -0.64530447802 0.72219807011 0.25071560858 -0.63850662617 0.72763381721 0.25302497031 -0.6282121681 0.73574984624 
0.25533495152 -0.61603873902 0.74518476538 0.25722650416 -0.60296681587 0.7551592842 0.25838244279 -0.58985128409 0.76505815198 
0.25862044163 -0.5771671922 0.77459247312 0.25785203958 -0.56533047702 0.78352650079 0.25608285829 -0.55458391424 0.79174380437 
0.25341324096 -0.54513037921 0.79913365526 0.25003731118 -0.53710534731 0.80560485904 0.24626613816 -0.53063215072 0.81103792132 
0.24257672443 -0.5258545543 0.81525058754 0.23962430606 -0.52288849062 0.81802678338 0.23841291062 -0.52192773642 0.81899372525 
0.24014599391 -0.52302238132 0.81778816954 0.24629739803 -0.52611511586 0.81396589399 0.25816669122 -0.53080551286 0.80721463506 