# vtk DataFile Version 4.2
vtk output
ASCII
DATASET POLYDATA
POINTS 128 float
0 0 0 -0.21228 0.0414499 0.256195 -0.648835 0.123217 0.743278 
-1.05793 0.191982 1.11099 -1.43567 0.248157 1.37552 -1.84225 0.30562 1.64449 
-2.2738 0.362449 1.91578 -2.71237 0.412972 2.16306 -3.15703 0.454349 2.38833 
-3.61097 0.484021 2.60033 -4.073 0.496671 2.79982 -4.54056 0.485552 2.98539 
-5.01105 0.440918 3.15709 -5.48101 0.352166 3.31504 -5.94234 0.20939 3.45695 
-6.38582 0.00507073 3.57966 -6.80511 -0.255782 3.67994 -7.19639 -0.562967 3.75478 
-7.56493 -0.902285 3.80297 -7.91919 -1.25878 3.82396 -8.26636 -1.62236 3.81709 
-8.61254 -1.98533 3.7816 -8.95997 -2.34301 3.71649 -9.30888 -2.69227 3.62059 
-9.65667 -3.03217 3.49235 -9.99915 -3.36285 3.32996 -10.3297 -3.68557 3.13094 
-10.6402 -4.0021 2.89252 -10.9183 -4.31427 2.61229 -11.15 -4.62375 2.28881 
-11.3209 -4.93071 1.92751 -11.418 -5.23467 1.53783 -11.4396 -5.53564 1.13374 
-11.3903 -5.83415 0.731105 -11.2801 -6.13264 0.340807 -11.1219 -6.43482 -0.0291615 
-10.9259 -6.74612 -0.37242 -10.7017 -7.0727 -0.683517 -10.4584 -7.41777 -0.95722 
-10.2054 -7.78405 -1.18704 -9.95471 -8.18908 -1.35077 -9.72287 -8.65393 -1.41496 
-9.5623 -9.13063 -1.33003 -9.54187 -9.52942 -1.04483 -9.64909 -9.79964 -0.61144 
-9.82099 -9.92068 -0.142108 -10.0182 -9.91987 0.320647 -10.2174 -9.85126 0.778008 
-10.4077 -9.73907 1.22988 -10.586 -9.58809 1.67506 -10.7498 -9.40515 2.11402 
-10.8968 -9.19848 2.54835 -11.0262 -8.97418 2.97931 -11.138 -8.73691 3.40794 
-11.2327 -8.49136 3.83619 -11.3117 -8.2425 4.26663 -11.3758 -7.99776 4.70124 
-11.4262 -7.76648 5.1419 -11.4641 -7.55837 5.59712 -11.4904 -7.38573 6.07954 
-11.496 -7.30233 6.57983 -11.4644 -7.39291 7.06888 -11.3932 -7.66273 7.50051 
-11.2931 -8.04654 7.81761 -11.1748 -8.49074 8.0253 -11.0478 -8.95496 8.18069 
-10.9175 -9.42111 8.31449 -10.785 -9.89054 8.43243 -10.6518 -10.3631 8.5409 
-10.5199 -10.8364 8.6477 -10.3907 -11.3093 8.75847 -10.2654 -11.7815 8.87667 
-10.1442 -12.2522 9.00507 -10.0267 -12.7202 9.14581 -9.91045 -13.1844 9.29985 
-9.79144 -13.6433 9.46686 -9.66428 -14.0956 9.64578 -9.5223 -14.5393 9.83476 
-9.35875 -14.9722 10.0316 -9.16692 -15.3908 10.2338 -8.94104 -15.7911 10.4385 
-8.67661 -16.1674 10.6426 -8.37153 -16.5138 10.8433 -8.0268 -16.8244 11.0383 
-7.64568 -17.0942 11.2264 -7.23427 -17.3201 11.4082 -6.79915 -17.5003 11.5855 
-6.34727 -17.6349 11.7614 -5.88529 -17.7244 11.9395 -5.4193 -17.7703 12.1235 
-4.95499 -17.7748 12.3171 -4.4974 -17.7413 12.5233 -4.05062 -17.6741 12.7443 
-3.6173 -17.5789 12.9811 -3.19889 -17.4612 13.234 -2.79502 -17.3275 13.5019 
-2.4043 -17.1834 13.7835 -2.02381 -17.0345 14.0763 -1.65016 -16.8855 14.3777 
-1.27946 -16.7405 14.6847 -0.908023 -16.6033 14.9943 -0.53266 -16.4767 15.3038 
-0.150789 -16.3639 15.6106 0.239068 -16.2676 15.9131 0.637674 -16.1906 16.2097 
1.04452 -16.1358 16.5 1.45828 -16.1063 16.7842 1.87617 -16.1061 17.0639 
2.2943 -16.1393 17.3415 2.70663 -16.2114 17.6206 3.10499 -16.3283 17.9054 
3.4765 -16.4967 18.2007 3.80626 -16.7208 18.51 4.07604 -16.9975 18.8332 
4.27192 -17.3193 19.1682 4.39376 -17.67 19.5097 4.44676 -18.0341 19.8529 
4.44471 -18.4019 20.1972 4.40163 -18.766 20.5422 4.3275 -19.1226 20.8878 
4.23365 -19.4704 21.2358 4.13835 -19.8145 21.5928 4.05442 -20.1566 21.9611 
3.97134 -20.4829 22.3234 3.90214 -20.7924 22.6775 3.96385 -21.1443 23.0912 
4.20229 -21.538 23.5602 4.35422 -21.7334 23.7941 
LINES 1 129
128 0 1 2 3 4 5 6 7 8 9 10 11 12 13 14 15 16 17 18 19 20 21 22 23 24 25 26 27 28 29 30 31 32 33 34 35 36 37 38 39 40 41 42 43 44 45 46 47 48 49 50 51 52 53 54 55 56 57 58 59 60 61 62 63 64 65 66 67 68 69 70 71 72 73 74 75 76 77 78 79 80 81 82 83 84 85 86 87 88 89 90 91 92 93 94 95 96 97 98 99 100 101 102 103 104 105 106 107 108 109 110 111 112 113 114 115 116 117 118 119 120 121 122 123 124 125 126 127 

CELL_DATA 1
FIELD FieldData 2
Length 1 1 double
57.2918009 
Tortuosity 1 1 double
0.76181654088 
POINT_DATA 128
SCALARS MaximumInscribedSphereRadius float
LOOKUP_TABLE default
1.2772 1.28563 1.29406 1.36233 1.43581 1.44767 1.45747 1.38443 1.30669 
1.36403 1.43207 1.36566 1.28574 1.16431 1.03779 1.16686 1.33252 1.52918 
1.7309 1.85323 1.96067 1.95731 1.93031 1.78497 1.61117 1.39547 1.16851 
1.12005 1.12467 1.29125 1.5106 1.66059 1.78617 1.96541 2.16501 2.30937 
2.43105 2.47249 2.47816 2.47347 2.46378 2.30126 2.06045 1.95157 1.90857 
1.96148 2.05909 2.06883 2.03472 2.01671 2.00737 2.11246 2.28408 2.38977 
2.45402 2.43777 2.36689 2.23844 2.06786 2.03588 2.11242 2.15339 2.16493 
2.18617 2.21499 2.276 2.36408 2.38297 2.33935 2.23677 2.07683 1.86425 
1.5965 1.48427 1.54755 1.6458 1.78655 1.8762 1.8989 1.95883 2.07122 
2.16054 2.21488 2.23706 2.20697 2.15864 2.07849 2.03758 2.07035 2.08694 
2.0707 2.03235 1.94548 1.88406 1.88339 1.92552 2.07927 2.2136 2.29232 
2.30901 2.12955 1.99667 2.02726 2.07835 2.20969 2.33647 2.44318 2.50302 
2.32938 2.16344 2.04131 1.94401 2.00843 2.08741 2.27396 2.4428 2.46092 
2.46823 2.36436 2.25959 2.1429 2.03541 2.09712 2.16547 2.44195 2.67138 
2.26569 1.86 
TEXTURE_COORDINATES TCoords 2 float
0 0 0.00787402 0 0.015748 0 0.023622 0 0.0314961 
0 0.0393701 0 0.0472441 0 0.0551181 0 0.0629921 0 
0.0708661 0 0.0787402 0 0.0866142 0 0.0944882 0 0.102362 
0 0.110236 0 0.11811 0 0.125984 0 0.133858 0 
0.141732 0 0.149606 0 0.15748 0 0.165354 0 0.173228 
0 0.181102 0 0.188976 0 0.19685 0 0.204724 0 
0.212598 0 0.220472 0 0.228346 0 0.23622 0 0.244094 
0 0.251969 0 0.259843 0 0.267717 0 0.275591 0 
0.283465 0 0.291339 0 0.299213 0 0.307087 0 0.314961 
0 0.322835 0 0.330709 0 0.338583 0 0.346457 0 
0.354331 0 0.362205 0 0.370079 0 0.377953 0 0.385827 
0 0.393701 0 0.401575 0 0.409449 0 0.417323 0 
0.425197 0 0.433071 0 0.440945 0 0.448819 0 0.456693 
0 0.464567 0 0.472441 0 0.480315 0 0.488189 0 
0.496063 0 0.503937 0 0.511811 0 0.519685 0 0.527559 
0 0.535433 0 0.543307 0 0.551181 0 0.559055 0 
0.566929 0 0.574803 0 0.582677 0 0.590551 0 0.598425 
0 0.606299 0 0.614173 0 0.622047 0 0.629921 0 
0.637795 0 0.645669 0 0.653543 0 0.661417 0 0.669291 
0 0.677165 0 0.685039 0 0.692913 0 0.700787 0 
0.708661 0 0.716535 0 0.724409 0 0.732283 0 0.740157 
0 0.748031 0 0.755906 0 0.76378 0 0.771654 0 
0.779528 0 0.787402 0 0.795276 0 0.80315 0 0.811024 
0 0.818898 0 0.826772 0 0.834646 0 0.84252 0 
0.850394 0 0.858268 0 0.866142 0 0.874016 0 0.88189 
0 0.889764 0 0.897638 0 0.905512 0 0.913386 0 
0.92126 0 0.929134 0 0.937008 0 0.944882 0 0.952756 
0 0.96063 0 0.968504 0 0.976378 0 0.984252 0 
0.992126 0 1 0 
FIELD FieldData 7
Curvature 1 128 double
0 0.019264515305 0.035545605347 0.050209107783 0.06309840254 0.074524403022 0.085182142158 0.095929366503 0.10747067968 
0.12004454228 0.13328886415 0.14625231301 0.15760209874 0.16595487106 0.17029824693 0.17037278928 0.16684438133 0.16117740814 
0.15524762106 0.15080509343 0.14906358961 0.15048248151 0.1549265212 0.16191669404 0.17088111324 0.18117916023 0.19195789107 
0.20202272853 0.20991225267 0.21409513216 0.21363999438 0.20869812492 0.20101431392 0.19399003173 0.19264690182 0.2032447812 
0.23273859847 0.28875610627 0.38120227441 0.52280646251 0.72113009077 0.94932725756 1.1094891079 1.0873164583 0.89911544302 
0.66753781319 0.47519143902 0.3371545504 0.2414730726 0.17372339645 0.12358057 0.085217139077 0.058568832755 0.053437747878 
0.075755392248 0.11536311563 0.16720002485 0.23062420334 0.3034874264 0.3776813212 0.43671288343 0.46062680661 0.43975533046 
0.38305037077 0.31040703756 0.23879798758 0.17677388824 0.12626553509 0.086272142271 0.055207798081 0.032537056603 0.022047491782 
0.027919806126 0.04087732442 0.055457367867 0.070821757221 0.086941166973 0.10372151072 0.12074194851 0.13735657626 0.15269830137 
0.1658321766 0.17585467565 0.18217412829 0.18448164434 0.18292366084 0.17792368837 0.17015839919 0.16022178861 0.14869449476 
0.13594668161 0.1222682622 0.10775915336 0.092601398204 0.076957727327 0.061119506288 0.045650794128 0.031851439194 0.023410476436 
0.026033287626 0.037048727068 0.050951787616 0.065709121968 0.080898165979 0.09659746024 0.11319231081 0.13097973845 0.15012958091 
0.17022010727 0.19017778516 0.20807323444 0.22123824136 0.22691261115 0.22299060308 0.20895466665 0.1859833296 0.15656872985 
0.12370225311 0.0901340222 0.058200152682 0.029981457521 0.009606431845 0.014876084453 0.023870063466 0.025887918249 0.021045585005 
0.011076983719 0 
Torsion 1 128 double
0 0 0.078268667375 0.10986764566 0.14267447242 0.17246261392 0.19330160923 0.19930236415 0.18792675095 
0.16138880185 0.12506512747 0.084405468627 0.042878167368 0.0018368897572 -0.038788280951 -0.079241331539 -0.11864088036 -0.15367150858 
-0.1777772154 -0.18245243358 -0.16190173162 -0.11766594249 -0.058316362909 0.0051115658043 0.064135433738 0.11388858269 0.15320077284 
0.1843034536 0.21138399035 0.23999056887 0.27634903425 0.3270069529 0.39689035478 0.4842795234 0.56984218618 0.61365943868 
0.58528200758 0.49826881285 0.38925662394 0.28315248935 0.18900771408 0.11056631641 0.049152004615 -0.0004663702065 -0.046484660202 
-0.091659305026 -0.13399212161 -0.17418601326 -0.21960732535 -0.28583403632 -0.41063718477 -0.69667707911 -1.337860238 -1.6276352829 
-0.89295982281 -0.44779965741 -0.25402991949 -0.15809993619 -0.10361170013 -0.069787189525 -0.047744434615 -0.032959253499 -0.022733610503 
-0.015055532113 -0.0081144183457 0.00021036379242 0.014262511087 0.043836391214 0.11447957209 0.30420268672 0.8693428713 1.6981720468 
0.82186471147 0.22563168347 0.020037011537 -0.05268527344 -0.072789370552 -0.068568944934 -0.05283123985 -0.031707748371 -0.0084797632607 
0.015480732647 0.039684149668 0.063405502969 0.086465185052 0.10818023177 0.12791827064 0.14482849063 0.15819925477 0.16796300259 
0.17451071193 0.17925895838 0.18486171868 0.19621268265 0.2226907366 0.28488157773 0.43670022252 0.81991431464 1.4520324623 
1.1208993528 0.49457193618 0.19597210948 0.049033179982 -0.036873266159 -0.093013652729 -0.12960587392 -0.15165418641 -0.16168076895 
-0.16235245893 -0.15671456173 -0.14710718326 -0.13612909093 -0.12538377184 -0.11564781245 -0.10765403318 -0.10252618074 -0.10210712194 
-0.10942550242 -0.13440181257 -0.21403699027 -0.5568010218 -3.8386540381 -1.1012932843 -0.26353537568 -0.11129097148 -0.056167564401 
0 0 
Abscissas 1 128 double
0 0.5026307824 1.0052615648 1.5078922674 2.010522963 2.5131527616 3.0157825304 3.518413395 4.0210443219 
4.5236769939 5.0263098039 5.5289383936 6.0315665591 6.5341989809 7.0368319237 7.5394619011 8.042091454 8.5447218213 
9.0473523218 9.5499841472 10.052616221 10.555246101 11.057875512 11.560505467 12.063135554 12.565775592 13.068418304 
13.571039688 14.073654731 14.576283331 15.078916346 15.581547296 16.084177519 16.586805226 17.089431979 17.592062025 
18.094693423 18.597312439 19.099925936 19.602559007 20.105201522 20.607835461 21.110465007 21.613097191 22.115730693 
22.618359886 23.120987069 23.623624826 24.126267857 24.628900907 25.131528587 25.634157757 26.136787794 26.639416079 
27.142043266 27.644672789 28.147303899 28.649936124 29.152569166 29.655200336 30.157830041 30.660459146 31.163087753 
31.665715804 32.16834342 32.67097427 33.173607839 33.676248538 34.178895679 34.681520294 35.184122998 35.686749135 
36.189399837 36.692039259 37.194665951 37.697284717 38.199893848 38.702533262 39.20521235 39.707855041 40.210446437 
40.713053399 41.215683945 41.718312967 42.220939514 42.723573611 43.22622088 43.728858837 44.231479317 44.734104369 
45.236738691 45.739375893 46.242019416 46.744652257 47.247259607 47.749879156 48.252530522 48.755176155 49.257805375 
49.760432977 50.263055463 50.765681102 51.268317809 51.77095079 52.273569183 52.776189674 53.278819402 53.781449832 
54.284083755 54.786718899 55.289360984 55.792002103 56.294636929 56.797265832 57.299850949 57.802442407 58.305087795 
58.807732139 59.31036576 59.813001305 60.315662071 60.818320129 61.320928424 61.823537875 62.326183564 62.828829353 
63.331476509 63.834123665 
ParallelTransportNormals 3 128 double
0 -0.98646387481 0.1639787294 -0.0069551440494 -0.98526688898 0.1705867174 -0.013910288099 -0.98406990315 0.1771947054 
-0.016059191728 -0.98374103058 0.17886120341 -0.017789844957 -0.98348770329 0.18009768129 -0.013262927841 -0.9840241483 0.17745289912 
-0.0085274843935 -0.98458691156 0.17467877843 0.0085481599008 -0.9858325875 0.1663188304 0.02632493925 -0.9871170646 0.15764151158 
0.066372065841 -0.98672684057 0.14105778626 0.10818048776 -0.98620416942 0.12384876684 0.18470359103 -0.97420526021 0.096952987044 
0.26471650517 -0.96105266331 0.069083412869 0.36902247335 -0.92083891512 0.038580092898 0.4763023811 -0.87731235875 0.0077543515142 
0.56087823026 -0.82166553602 -0.010781492136 0.64220388167 -0.76428363751 -0.027557976427 0.68098674765 -0.7302742708 -0.032173231298 
0.7128101999 -0.70008832836 -0.034799076542 0.71937012514 -0.69373486461 -0.035096148585 0.72119210618 -0.69185096497 -0.034956480443 
0.71587566916 -0.69721233184 -0.036346860121 0.70903490547 -0.70412084164 -0.038063963829 0.70789930883 -0.70527351613 -0.038310800532 
0.70813622991 -0.7050414834 -0.038203928483 0.72199806693 -0.69076833575 -0.027972246879 0.73951916889 -0.67272414393 -0.015021329366 
0.76965802112 -0.63419258817 0.022344546682 0.80354817909 -0.58957006022 0.066969083928 0.83088595467 -0.52706061735 0.14153611279 
0.85608925243 -0.45872440482 0.22585708763 0.85768631091 -0.38871891493 0.3167596334 0.85097147323 -0.31812566262 0.40997958915 
0.82860043101 -0.25479377737 0.48910095077 0.80029378919 -0.19421483058 0.56287723596 0.76624994656 -0.13723082763 0.62232042465 
0.72984947859 -0.08172349179 0.67587611882 0.68962773182 -0.020671870431 0.71923200351 0.64770269598 0.042851049544 0.75804144576 
0.59664241728 0.14130808542 0.78043229956 0.54117529219 0.25661735888 0.79490281686 0.50865076317 0.41649055771 0.72595539367 
0.48787912929 0.59919269626 0.61427512956 0.51278407211 0.69679425397 0.47617012278 0.56049827157 0.75189961059 0.32486954004 
0.60067269484 0.76410863211 0.21692291106 0.63733246884 0.75632162607 0.12918562753 0.666106471 0.74060665881 0.058579912579 
0.69094638949 0.72093656027 -0.003479140669 0.71018369366 0.69987225019 -0.056114742878 0.72640685929 0.67805787121 -0.10368064277 
0.73817922912 0.65817466413 -0.14305640645 0.74736416456 0.63941412831 -0.17767090022 0.75308238845 0.62562527061 -0.20259560961 
0.75662277575 0.61495969052 -0.22143306116 0.75766368289 0.61234087922 -0.22572279749 0.75700857668 0.61518217421 -0.22014123348 
0.75513281066 0.62687931481 -0.18305855144 0.75236352268 0.64505892698 -0.12291707736 0.75729058494 0.63604567187 -0.0063129812414 
0.76824299619 0.60574355768 0.15449479486 0.78615050562 0.54353769305 0.27286406432 0.80981246607 0.45493557002 0.35612091684 
0.82488572561 0.39887140835 0.39940306493 0.83324437526 0.36824528679 0.41143315876 0.83850806365 0.34909791285 0.41827275141 
0.84116900129 0.33960375154 0.42074731983 0.8428116489 0.33372795166 0.42224181277 0.84353428848 0.33112128087 0.42285082388 
0.84369581742 0.33057054924 0.42296412722 0.84331154127 0.33201967643 0.42259524431 0.84204313852 0.33697022516 0.42112965828 
0.83984796155 0.34559109362 0.41851446744 0.83589799312 0.36055022569 0.41333938293 0.829967815 0.38266182647 0.40527556412 
0.82067884173 0.41285869617 0.39315200845 0.80730706873 0.45288365372 0.37609361994 0.78794201175 0.50023361781 0.35448415164 
0.76072501299 0.55718024464 0.32691220706 0.72471986189 0.61803282544 0.2957285655 0.67632998725 0.6843898807 0.25945513183 
0.61919021259 0.74880584875 0.22198402703 0.54879292996 0.81028075699 0.18269825757 0.47368449128 0.86513364179 0.14438394746 
0.39091990084 0.9092250031 0.1076483667 0.30778245595 0.94595087005 0.072193954495 0.22399463546 0.96982899478 0.03897430382 
0.14268082139 0.98772544732 0.0064921210838 0.066010843943 0.99439399512 -0.024605796601 -0.005627611346 0.9971921652 -0.054834674201 
-0.067065319908 0.99214365559 -0.083301687797 -0.12190811652 0.98583564775 -0.10991855051 -0.16227131359 0.97676232175 -0.13247327502 
-0.19641623416 0.96848351133 -0.15219852509 -0.21572168768 0.96210075486 -0.16517143911 -0.23030848764 0.95724401402 -0.17503579922 
-0.23258800498 0.95636745637 -0.17679236949 -0.23161898569 0.95672378829 -0.17591170748 -0.2213486126 0.96061018414 -0.16748000532 
-0.20868785999 0.96511803865 -0.15712610245 -0.18846957723 0.97159072446 -0.14069488436 -0.16615660981 0.97812022646 -0.12287963901 
-0.13649162033 0.98484914459 -0.10020667016 -0.10464273637 0.99111650304 -0.076331179137 -0.064241011057 0.99557624365 -0.047746220041 
-0.021259273502 0.99888768142 -0.017663319047 0.033076284289 0.99714580055 0.019011551834 0.090328388888 0.99298006622 0.058008647218 
0.16211219488 0.9767374763 0.10857623171 0.23549053459 0.95620294688 0.16227096446 0.31793563266 0.91126380431 0.23374713224 
0.39741372999 0.86257319692 0.30671455548 0.45756850575 0.78945025282 0.38939414646 0.51269390512 0.71750482667 0.46957162325 
0.53063532121 0.65426521309 0.53125007246 0.54657394281 0.59436272256 0.58958453557 0.54548272501 0.56283591903 0.6194849549 
0.54437458696 0.533571635 0.64725967293 0.54309265552 0.52754641688 0.65320062883 0.54215774857 0.52292839439 0.65768793453 
0.54576864633 0.53674375878 0.64313332741 0.54944768218 0.55163021373 0.62732266731 0.55437868776 0.58619689919 0.58843327506 
0.55844288431 0.62213675814 0.54787657258 0.53533371834 0.70112386264 0.45505181111 0.51381833151 0.77466343175 0.36862893229 
0.51381833151 0.77466343175 0.36862893229 0.51381833151 0.77466343175 0.36862893229 
FrenetTangent 3 128 double
-0.78162573722 0.1061056775 0.61465664571 -0.78162573722 0.1061056775 0.61465664571 -0.78978299804 0.10125143772 0.60497186907 
-0.80211713453 0.092937503206 0.58989043304 -0.81756006562 0.080588811446 0.57017627325 -0.83490298454 0.06350036198 0.54672178522 
-0.8529292675 0.040907191915 0.52042123928 -0.8704909997 0.012071067941 0.49203628805 -0.88652352574 -0.023611944126 0.46208063626 
-0.90001634781 -0.066478263301 0.43075656024 -0.90998562839 -0.11644119525 0.39795427397 -0.91549344928 -0.17283490908 0.36331782028 
-0.9157429159 -0.23430529057 0.32636780294 -0.91024308736 -0.29881383433 0.28664928803 -0.89898447409 -0.36381007404 0.24386296433 
-0.88253236025 -0.42656831479 0.19792954789 -0.86195580734 -0.48460364451 0.14896809702 -0.8385831209 -0.53603101642 0.097206475007 
-0.81366007129 -0.57975807685 0.042870277656 -0.78802815553 -0.61548244296 -0.013892030207 -0.76191022529 -0.64355365197 -0.07301715985 
-0.73483980877 -0.66477656475 -0.13447146317 -0.70571770472 -0.6802196593 -0.19815079193 -0.67296141478 -0.69105433688 -0.26375526098 
-0.63472227822 -0.69842280937 -0.33065572562 -0.58914088601 -0.70334642645 -0.39776478078 -0.53465283309 -0.70666516902 -0.4634335842 
-0.4703373204 -0.70902711802 -0.52541731124 -0.39625149514 -0.71095502362 -0.58097134782 -0.31368413649 -0.71297189235 -0.62711509569 
-0.22518836619 -0.71575386999 -0.6610496179 -0.13429784018 -0.72024508779 -0.68059613842 -0.04497849554 -0.72767192505 -0.68444905175 
0.038999471952 -0.73943147979 -0.672101278 0.11451658409 -0.75689662083 -0.64342323345 0.17923819239 -0.78118001685 -0.59802295245 
0.23140524072 -0.812856402 -0.53452416623 0.26933614972 -0.85152071434 -0.44985610088 0.29071702039 -0.89487120733 -0.33865784555 
0.29175937262 -0.93676533875 -0.19325415547 0.266639739 -0.96377845496 -0.0058599780509 0.20898544861 -0.95204713309 0.22345321353 
0.11852398122 -0.87339304513 0.47237342705 0.010005037737 -0.72020748827 0.69368658129 -0.091496048781 -0.52334269485 0.84719590226 
-0.16887386826 -0.32697077287 0.92982349417 -0.2194904929 -0.15697590987 0.9629031557 -0.24807610235 -0.019416373292 0.96854594723 
-0.26033414246 0.088537021401 0.96145063841 -0.26080105791 0.17147043926 0.95004247097 -0.25274028831 0.23317225779 0.93901706314 
-0.23845325425 0.27613096706 0.93107020926 -0.21953504108 0.3016330418 0.9278048684 -0.19701726621 0.30994730437 0.93011658695 
-0.17143870541 0.30043229226 0.93826926202 -0.1428724018 0.27159484309 0.95174771763 -0.11096866411 0.22119716649 0.96889512803 
-0.075114223879 0.14660874451 0.98633854705 -0.034776358385 0.045822215179 0.99834409373 0.0098808707162 -0.080494748431 0.9967060569 
0.057228252972 -0.22627356166 0.97238120218 0.10387399369 -0.3787191396 0.91966407277 0.14564013851 -0.52143038682 0.8407730382 
0.17946155801 -0.64123189986 0.74606648483 0.20456844173 -0.73292000299 0.64882973257 0.22210280293 -0.79842920322 0.55962590396 
0.23401740297 -0.84306171816 0.48423423514 0.2422774661 -0.87240359286 0.42451572479 0.24856654001 -0.89095334695 0.38002211613 
0.25429720582 -0.90188225021 0.34920099923 0.26070548916 -0.90723530201 0.33008598079 0.26894021645 -0.90822739897 0.32061527059 
0.28010990818 -0.90549494505 0.31877475406 0.29526963798 -0.89927330219 0.32268152852 0.31537730307 -0.88950706869 0.33062717895 
0.34121232317 -0.87590975083 0.34111033247 0.3732765828 -0.8579961878 0.35285568503 0.41170444358 -0.83510903376 0.36481824636 
0.45616532065 -0.80647365647 0.37618272377 0.50579776211 -0.77129321969 0.38636173868 0.55919721237 -0.72888293668 0.39500397757 
0.61447085668 -0.67883889807 0.40199915019 0.66937526691 -0.62120338936 0.40748386605 0.72154153517 -0.55656791327 0.41183731126 
0.7687459634 -0.4860915041 0.41562566499 0.80915418406 -0.41141755668 0.41952961811 0.84150397005 -0.33450563654 0.42423701807 
0.8651802529 -0.25743222096 0.43033914718 0.88019344582 -0.18221852704 0.43824183545 0.88709669341 -0.11070615133 0.44811115205 
0.88687253412 -0.044468667235 0.45986916167 0.88081368559 0.015229177353 0.47321805062 0.87040652029 0.0674358493 0.48769344435 
0.85722133317 0.11150880126 0.50272992073 0.84279846528 0.14709674096 0.5177386365 0.82854867657 0.17408657676 0.53216628449 
0.8156618535 0.19255122144 0.54554538571 0.805033687 0.20268496341 0.55752988118 0.79721497524 0.20473936021 0.56791731584 
0.79237997685 0.19896481185 0.57666886159 0.79032002354 0.18557755171 0.58391372025 0.79045428125 0.1647311311 0.58995396744 
0.79185129934 0.1365153453 0.5952605146 0.79326807024 0.10097817516 0.6004408188 0.79319084187 0.058165806355 0.606188937 
0.78987353676 0.0081748285762 0.6132152706 0.7813946975 -0.048761913601 0.62212908829 0.76572127315 -0.11215298841 0.63331874995 
0.7408320407 -0.18108635156 0.64681961995 0.70494887898 -0.25404416584 0.66219984886 0.65688757425 -0.3287762981 0.67853139987 
0.59654318971 -0.402305097 0.69446874065 0.52533223194 -0.47119685836 0.70851927761 0.44638197578 -0.53212188193 0.71943688707 
0.36424452083 -0.58257126933 0.72659248909 0.28413351307 -0.62139882925 0.73015864151 0.21097453281 -0.64893024899 0.73101250226 
0.14862869546 -0.66664196457 0.73040947554 0.099525331206 -0.6766187458 0.72957643964 0.064633314477 -0.681009042 0.72941704078 
0.04360794585 -0.68165340384 0.73037455055 0.034976330151 -0.67995330679 0.73242075128 0.036299535851 -0.67690882576 0.73517126256 
0.044384696664 -0.67324506079 0.73808609717 0.055615243276 -0.66957005765 0.74066381214 0.066431095521 -0.66645964875 0.74257554911 
0.073890189788 -0.66442339479 0.74369469025 0.073890189788 -0.66442339479 0.74369469025 
FrenetNormal 3 128 double
-0.60931152189 -0.34066668055 -0.71602072739 -0.60931152189 -0.34066668055 -0.71602072739 -0.59476118836 -0.36761039525 -0.71492777686 
-0.5706722906 -0.41026611092 -0.71134721126 -0.53618367937 -0.46764094228 -0.70272257049 -0.49032821792 -0.53705115911 -0.68640679718 
-0.43266671543 -0.61318911635 -0.66090742237 -0.36413331192 -0.68838502112 -0.62732208143 -0.28740561691 -0.75455108354 -0.58995819657 
-0.20614472459 -0.8058468119 -0.55508131682 -0.12378917789 -0.83969683025 -0.52875842566 -0.042737464198 -0.85614301033 -0.51496859614 
0.035402795281 -0.85623536814 -0.51537135779 0.10921693234 -0.84100805969 -0.52988404885 0.17697922111 -0.81105323378 -0.55755807524 
0.23657115117 -0.76649716428 -0.5970897651 0.28581633443 -0.70717217975 -0.64669662993 0.32310399709 -0.63304307399 -0.70346305769 
0.34832932273 -0.54524363233 -0.76248020586 0.3640093723 -0.44762101528 -0.816781858 0.37594325073 -0.34762560392 -0.85896630418 
0.39204945903 -0.25454750731 -0.88402646352 0.41980151896 -0.17617413931 -0.89035350132 0.46352968975 -0.11611887838 -0.87843988571 
0.5234815167 -0.073874161169 -0.84882843378 0.59652206727 -0.046531595307 -0.80124667481 0.67718615603 -0.030208250598 -0.73519138438 
0.75925280396 -0.021656323902 -0.65043537981 0.83676243536 -0.019190505301 -0.54722970613 0.90438822857 -0.023126999945 -0.42608341189 
0.95720091987 -0.035913727911 -0.28718740074 0.98960291172 -0.061799348151 -0.129872698 0.99327475735 -0.10574546173 0.047150331167 
0.95487023988 -0.17062493813 0.24312539044 0.85755692144 -0.25163309367 0.44863895579 0.69425151537 -0.33025889076 0.63948721526 
0.48598063622 -0.37938814426 0.78732931942 0.27380644227 -0.38013275193 0.8834755928 0.087534805582 -0.32758584433 0.940757765 
-0.065822384825 -0.22122955963 0.97299789085 -0.19086738363 -0.058763256172 0.97985535748 -0.29024468593 0.15781705887 0.94384945739 
-0.35760683149 0.40625745218 0.84087587468 -0.38235921719 0.63824709289 0.66816321168 -0.36377997681 0.80953013563 0.46078746509 
-0.31328050956 0.91225775222 0.26389603225 -0.24280399899 0.96470608026 0.10192348494 -0.15839260901 0.98715752151 -0.02078001793 
-0.059818882663 0.99239478697 -0.10758386534 0.058805563039 0.98509388923 -0.1616537508 0.21276048631 0.96016392267 -0.18115798926 
0.43753211582 0.88645991306 -0.150845849 0.77511634955 0.6314396476 -0.021877296261 0.97723894574 -0.014037781686 0.21167660149 
0.77923139014 -0.54139679224 0.31573399241 0.58133225542 -0.75523177472 0.30278338008 0.46291553816 -0.85119328854 0.24734427441 
0.39287016016 -0.9047785196 0.16440458549 0.34910319775 -0.93546314926 0.055096766717 0.3181328053 -0.94471122956 -0.079449423764 
0.29109631817 -0.92787452069 -0.2330489378 0.26274293207 -0.88136906668 -0.39262541939 0.23159618578 -0.80825230874 -0.54137917594 
0.1992555608 -0.7189673176 -0.66587027093 0.16887371121 -0.62648299554 -0.76092097222 0.14346879905 -0.5409521105 -0.82872644331 
0.12607089385 -0.46754540951 -0.87493280872 0.12169704742 -0.40676954266 -0.90538851761 0.1420889271 -0.35455195722 -0.92417728084 
0.21984022978 -0.297713193 -0.92899791608 0.44640440054 -0.18987885754 -0.87445361835 0.8729590833 0.089203518386 -0.47956769198 
0.9385376413 0.32809034861 0.10725585768 0.86315208635 0.39588081393 0.31344354672 0.83455017436 0.42582587221 0.34956878155 
0.830230717 0.45099582136 0.32759689507 0.83086671406 0.47838235569 0.28427244895 0.8272149512 0.51042883835 0.23489960726 
0.8151281885 0.54827581052 0.18697505692 0.7929028151 0.5920932298 0.14398171079 0.75973032545 0.64125041886 0.10773918929 
0.71537542013 0.69427061789 0.078907017439 0.65982484324 0.7491628245 0.058191396461 0.59349092666 0.80351945425 0.04609779413 
0.51727288331 0.85474434962 0.042905255882 0.43237706693 0.90035960417 0.049016886518 0.34057255664 0.9380322223 0.064077169021 
0.24376179243 0.96586067808 0.087711681626 0.14434137017 0.98239831396 0.11857116677 0.044681967937 0.98684883938 0.15534764226 
-0.05275253125 0.97910125118 0.19641260238 -0.14586402267 0.95959693835 0.24061879146 -0.23308843213 0.92897002133 0.28754909543 
-0.3136987831 0.88729231364 0.33809085115 -0.38831128172 0.83227074336 0.39565105614 -0.45884420429 0.75580133907 0.46714701332 
-0.52827951847 0.63229550094 0.56667728898 -0.58919317117 0.38262097473 0.71165482977 -0.54381716291 -0.16491939429 0.82283928364 
-0.25976582035 -0.74527569746 0.61407316612 -0.043232047937 -0.93376017689 0.35527865413 0.039978982006 -0.97497858148 0.21867429352 
0.052827513971 -0.98635392873 0.15593325831 0.025851505165 -0.99084839076 0.13248081452 -0.027859446374 -0.99091987565 0.13153574151 
-0.10090018156 -0.98455243216 0.14309319229 -0.18741789393 -0.96925608763 0.15942763134 -0.28269949689 -0.94315041687 0.17478067863 
-0.38218490472 -0.90553814633 0.18421553721 -0.48208985002 -0.85644275556 0.18464880976 -0.57899444857 -0.79641006018 0.17463231251 
-0.66958746663 -0.72653054594 0.15429189983 -0.75097479894 -0.64825828144 0.12569030153 -0.82057345222 -0.56410405566 0.09190116376 
-0.87687324964 -0.47734826315 0.056850151483 -0.91980072378 -0.39161066382 0.024651907031 -0.95083199508 -0.30970671861 -0.00051534286788 
-0.97240151249 -0.23285312904 -0.014653286272 -0.98714272686 -0.1593051774 -0.013080414848 -0.9968002661 -0.07850703642 0.01502912983 
-0.99240383926 0.054622536738 0.11023156669 -0.63169344439 0.55286099656 0.54342258951 0.77142036761 0.48664287133 0.40998699032 
0.91183801312 0.32914108155 0.24539271845 0.94236327357 0.28033146383 0.18266288897 0.95344448897 0.26180437034 0.14967323784 
0.95738239467 0.25604832982 0.13363458821 0.95738239467 0.25604832982 0.13363458821 
FrenetBinormal 3 128 double
0.13341917479 -0.93417760515 0.33092525717 0.13341917479 -0.93417760515 0.33092525717 0.15000648263 -0.92445159076 0.35055286549 
0.1759012201 -0.90721791138 0.38211833512 0.21000619295 -0.88023712292 0.42553496489 0.25003048837 -0.84115620222 0.47952163492 
0.29208077308 -0.78887623189 0.54070612421 0.33113796308 -0.72524502895 0.60362844317 0.36259350475 -0.65581639079 0.66214108156 
0.3840246427 -0.58838045197 0.71157116126 0.39573020552 -0.53042500065 0.7496978879 0.40005656286 -0.48697765869 0.77640679186 
0.40020189164 -0.46039333744 0.79238653495 0.39941104592 -0.45101633668 0.79815730307 0.40063109045 -0.45807737556 0.79351108837 
0.40641201206 -0.48012661868 0.7773723088 0.41873763763 -0.51484640032 0.74805880445 0.43861390358 -0.55850444573 0.70405300062 
0.4654288037 -0.60546672388 0.64558971101 0.49649652866 -0.64870393023 0.57677934077 0.52740826769 -0.68190551877 0.50679915415 
0.55345069981 -0.70233730178 0.44767693418 0.57072691011 -0.71152223278 0.40988645543 0.57642272764 -0.71341454258 0.39846772705 
0.56841422502 -0.71186247806 0.41250100742 0.54504535563 -0.70932264523 0.4469753296 0.50553462606 -0.70690296399 0.49469479618 
0.44979771533 -0.70484860045 0.54851660479 0.37790657492 -0.70297558912 0.60250472342 0.28928220569 -0.70081111763 0.65205795975 