# vtk DataFile Version 4.2
vtk output
ASCII
DATASET POLYDATA
POINTS 128 float
0 0 0 -0.241131 -0.0770049 0.230929 -0.749244 -0.217425 0.620867 
-1.25402 -0.31023 0.800135 -1.73253 -0.361332 0.79694 -2.22374 -0.404739 0.73438 
-2.71904 -0.446801 0.638314 -3.2022 -0.48814 0.511657 -3.68295 -0.538352 0.375782 
-4.17344 -0.610789 0.262903 -4.66006 -0.724495 0.23249 -5.12033 -0.89391 0.33898 
-5.52738 -1.09999 0.565847 -5.86148 -1.31616 0.873594 -6.14833 -1.53401 1.22394 
-6.4249 -1.75179 1.58229 -6.70785 -1.97208 1.93273 -7.0071 -2.19947 2.26448 
-7.33501 -2.44172 2.5588 -7.70055 -2.70803 2.79063 -8.08499 -3.00922 2.91369 
-8.45531 -3.3532 2.88174 -8.75631 -3.72409 2.7043 -8.93243 -4.09745 2.4152 
-8.98461 -4.45599 2.05898 -8.93664 -4.78683 1.6804 -8.81298 -5.08733 1.29709 
-8.63712 -5.35949 0.914772 -8.42376 -5.6084 0.533893 -8.18405 -5.84034 0.153789 
-7.93062 -6.06078 -0.217664 -7.67429 -6.27659 -0.572144 -7.40509 -6.50949 -0.929738 
-7.11219 -6.78843 -1.30559 -6.86512 -7.14223 -1.55182 -6.76342 -7.58484 -1.46802 
-6.81025 -8.0035 -1.12105 -6.96032 -8.25044 -0.693902 -7.17326 -8.3523 -0.249953 
-7.41399 -8.38764 0.192835 -7.66821 -8.3597 0.624285 -7.92832 -8.24725 1.03805 
-8.17796 -8.0585 1.43346 -8.3985 -7.8139 1.81348 -8.58018 -7.53612 2.19023 
-8.71727 -7.24953 2.57966 -8.80561 -6.98425 2.99735 -8.84264 -6.77345 3.45585 
-8.83262 -6.65398 3.94581 -8.78385 -6.65998 4.44663 -8.71133 -6.78933 4.93127 
-8.63233 -7.02174 5.37182 -8.55558 -7.33371 5.75982 -8.4852 -7.70129 6.09638 
-8.42192 -8.11065 6.3811 -8.36457 -8.55334 6.61243 -8.31041 -9.02209 6.78592 
-8.25571 -9.50998 6.89571 -8.19539 -10.0075 6.9377 -8.12361 -10.504 6.90973 
-8.035 -10.9908 6.81949 -7.92457 -11.4608 6.68088 -7.78873 -11.9133 6.51063 
-7.62477 -12.3508 6.32716 -7.43018 -12.7775 6.14828 -7.20261 -13.1978 5.9918 
-6.94119 -13.6128 5.88191 -6.64662 -14.0204 5.84663 -6.32811 -14.4078 5.90394 
-6.00081 -14.7544 6.06271 -5.67306 -15.0479 6.30952 -5.34728 -15.2828 6.61401 
-5.0178 -15.4591 6.94984 -4.67273 -15.5807 7.29451 -4.30426 -15.6514 7.629 
-3.90851 -15.6743 7.9375 -3.48694 -15.6555 8.21067 -3.04568 -15.6038 8.44515 
-2.59065 -15.5277 8.64334 -2.12735 -15.4349 8.81296 -1.65996 -15.3306 8.96278 
-1.19133 -15.2179 9.10242 -0.724146 -15.0983 9.2408 -0.260889 -14.9715 9.38597 
0.196509 -14.838 9.5434 0.646779 -14.6989 9.71563 1.08984 -14.5563 9.90314 
1.52698 -14.4138 10.1042 1.95979 -14.2757 10.3172 2.39011 -14.1473 10.5411 
2.81911 -14.0344 10.7757 3.24699 -13.9439 11.0222 3.67184 -13.8843 11.2831 
4.08879 -13.8663 11.563 4.48963 -13.9 11.8651 4.86147 -13.9943 12.1899 
5.19264 -14.1529 12.5343 5.47406 -14.3718 12.8893 5.7007 -14.6447 13.246 
5.87383 -14.9625 13.5955 5.99571 -15.3172 13.9302 6.0692 -15.7025 14.2444 
6.0975 -16.1124 14.5336 6.08422 -16.5409 14.7956 6.03374 -16.9819 15.0304 
5.95178 -17.4298 15.242 5.84438 -17.8801 15.4357 5.71786 -18.3298 15.6191 
5.57817 -18.777 15.7988 5.43035 -19.2214 15.9789 5.27887 -19.6634 16.1615 
5.12716 -20.1049 16.3453 4.97812 -20.5481 16.5274 4.83368 -20.9957 16.7021 
4.69515 -21.4507 16.8624 4.56258 -21.9151 16.9991 4.43527 -22.3896 17.1026 
4.31105 -22.8725 17.1639 4.18766 -23.3599 17.1762 4.06348 -23.8444 17.1402 
3.9351 -24.3202 17.0581 3.79322 -24.7893 16.9334 3.63359 -25.249 16.7735 
3.47236 -25.6767 16.5987 3.3073 -26.0693 16.4177 3.05755 -26.5068 16.1899 
2.70888 -26.995 15.9179 2.52216 -27.2374 15.7796 
LINES 1 129
128 0 1 2 3 4 5 6 7 8 9 10 11 12 13 14 15 16 17 18 19 20 21 22 23 24 25 26 27 28 29 30 31 32 33 34 35 36 37 38 39 40 41 42 43 44 45 46 47 48 49 50 51 52 53 54 55 56 57 58 59 60 61 62 63 64 65 66 67 68 69 70 71 72 73 74 75 76 77 78 79 80 81 82 83 84 85 86 87 88 89 90 91 92 93 94 95 96 97 98 99 100 101 102 103 104 105 106 107 108 109 110 111 112 113 114 115 116 117 118 119 120 121 122 123 124 125 126 127 

CELL_DATA 1
FIELD FieldData 2
Length 1 1 double
54.576208946 
Tortuosity 1 1 double
0.72824391579 
POINT_DATA 128
SCALARS MaximumInscribedSphereRadius float
LOOKUP_TABLE default
0.93 1.02089 1.11177 1.21692 1.32288 1.41945 1.51569 1.44065 1.35626 
1.29949 1.24492 1.24 1.24 1.24 1.24 1.24 1.24 1.32154 
1.41588 1.43591 1.44224 1.32004 1.17229 1.09454 1.03034 1.21604 1.45304 
1.44725 1.38534 1.34528 1.31097 1.39355 1.51119 1.74733 2.0227 2.09201 
2.09401 1.91142 1.70151 1.41279 1.11065 1.09614 1.13808 1.1839 1.23058 
1.27708 1.32354 1.40999 1.50778 1.54571 1.56559 1.65197 1.75942 1.76147 
1.72718 1.65862 1.57706 1.55274 1.55227 1.60532 1.68267 1.75521 1.82536 
1.8583 1.87102 1.92743 2.00984 2.00749 1.95052 1.83501 1.67972 1.67821 
1.78776 1.84724 1.86761 1.86903 1.85446 1.81363 1.74881 1.65287 1.52603 
1.46497 1.47523 1.51433 1.58759 1.67462 1.77946 1.80563 1.72027 1.64723 
1.59336 1.57205 1.60628 1.69557 1.88758 2.04348 2.12625 2.1572 2.07474 
1.96264 1.77989 1.68995 1.84279 1.95888 1.96868 1.96263 1.90531 1.86042 
1.86111 1.87643 1.95327 2.03506 2.14106 2.24529 2.33921 2.41415 2.3574 
2.30425 2.28163 2.26914 2.36562 2.45669 2.46862 2.47761 2.4259 2.37098 
2.27049 2.17 
TEXTURE_COORDINATES TCoords 2 float
0 0 0.00787402 0 0.015748 0 0.023622 0 0.0314961 
0 0.0393701 0 0.0472441 0 0.0551181 0 0.0629921 0 
0.0708661 0 0.0787402 0 0.0866142 0 0.0944882 0 0.102362 
0 0.110236 0 0.11811 0 0.125984 0 0.133858 0 
0.141732 0 0.149606 0 0.15748 0 0.165354 0 0.173228 
0 0.181102 0 0.188976 0 0.19685 0 0.204724 0 
0.212598 0 0.220472 0 0.228346 0 0.23622 0 0.244094 
0 0.251969 0 0.259843 0 0.267717 0 0.275591 0 
0.283465 0 0.291339 0 0.299213 0 0.307087 0 0.314961 
0 0.322835 0 0.330709 0 0.338583 0 0.346457 0 
0.354331 0 0.362205 0 0.370079 0 0.377953 0 0.385827 
0 0.393701 0 0.401575 0 0.409449 0 0.417323 0 
0.425197 0 0.433071 0 0.440945 0 0.448819 0 0.456693 
0 0.464567 0 0.472441 0 0.480315 0 0.488189 0 
0.496063 0 0.503937 0 0.511811 0 0.519685 0 0.527559 
0 0.535433 0 0.543307 0 0.551181 0 0.559055 0 
0.566929 0 0.574803 0 0.582677 0 0.590551 0 0.598425 
0 0.606299 0 0.614173 0 0.622047 0 0.629921 0 
0.637795 0 0.645669 0 0.653543 0 0.661417 0 0.669291 
0 0.677165 0 0.685039 0 0.692913 0 0.700787 0 
0.708661 0 0.716535 0 0.724409 0 0.732283 0 0.740157 
0 0.748031 0 0.755906 0 0.76378 0 0.771654 0 
0.779528 0 0.787402 0 0.795276 0 0.80315 0 0.811024 
0 0.818898 0 0.826772 0 0.834646 0 0.84252 0 
0.850394 0 0.858268 0 0.866142 0 0.874016 0 0.88189 
0 0.889764 0 0.897638 0 0.905512 0 0.913386 0 
0.92126 0 0.929134 0 0.937008 0 0.944882 0 0.952756 
0 0.96063 0 0.968504 0 0.976378 0 0.984252 0 
0.992126 0 1 0 
FIELD FieldData 7
Curvature 1 128 double
0 0.024658611255 0.040690060077 0.047214290212 0.043728118006 0.035535606612 0.039204787452 0.06242015909 0.092622428512 
0.1200861477 0.13836102586 0.14376594253 0.13671961849 0.12287797584 0.11391523745 0.12491339588 0.16272743074 0.22390172429 
0.30377560301 0.39587950113 0.48555317166 0.54780161064 0.55838972194 0.51329856124 0.43232527839 0.34184868302 0.25961510312 
0.19400476646 0.15227629805 0.14993795117 0.2036218044 0.32457849161 0.5459877707 0.93386851227 1.5100372574 1.9679612553 
1.7946909719 1.2257026033 0.75202570811 0.46225508946 0.2914248478 0.18548359348 0.1183587979 0.088057951412 0.10268860939 
0.14625843092 0.20187503556 0.26205971716 0.32047811523 0.36953068805 0.40187816274 0.4135001139 0.40543861862 0.38257530461 
0.35067361995 0.31422274198 0.27592716401 0.23722318985 0.19912822127 0.16299534566 0.13140982008 0.10943441637 0.10446407329 
0.11956913293 0.14894391595 0.18457125697 0.2198158505 0.24883848033 0.26686786957 0.27144732028 0.26347371652 0.24652015737 
0.22515525064 0.20309989907 0.18228646522 0.1630588247 0.14472917575 0.12651685731 0.10790326675 0.088837490666 0.06968482892 
0.050982497045 0.033648196322 0.020286199349 0.019528965997 0.031867473001 0.048485746723 0.06712047277 0.087604768961 0.11006379365 
0.13453939635 0.16072548336 0.18789576364 0.21475133229 0.23943714141 0.25965654583 0.27323308565 0.27858348402 0.27520007485 
0.26381614625 0.24605586566 0.22399277482 0.19960948226 0.17466577515 0.15046101056 0.12800511624 0.10809090783 0.091393603218 
0.07865698082 0.070643561656 0.067919457396 0.070355938737 0.076943897823 0.086216041839 0.096690495764 0.1069039921 0.1156377521 
0.12178272012 0.12451700488 0.12335606614 0.11816059979 0.10909100078 0.096426517318 0.080643695857 0.062203736061 0.041719864146 
0.019918729742 0 
Torsion 1 128 double
0 0 0.1456557749 0.2840983955 0.62415234933 1.4355761192 1.5181059035 0.65874334634 0.26835239381 
0.092823351032 -0.022598162473 -0.14162646052 -0.31330529337 -0.58600661815 -0.89359090199 -0.88926469804 -0.58102763284 -0.30832915527 
-0.13829952566 -0.035094325629 0.030440239752 0.075498562697 0.11193938287 0.1495574833 0.19914911099 0.27869215359 0.42543904211 
0.7156773009 1.2051023784 1.4517442561 1.0473514529 0.62571258302 0.37172293775 0.21100942792 0.099920645826 0.026441454697 
-0.033658731681 -0.10834970401 -0.19740467555 -0.29582037935 -0.431043482 -0.68297709474 -1.2282718735 -1.8662709791 -1.312829015 
-0.68564295595 -0.4058162426 -0.27588489673 -0.20437003448 -0.15687483941 -0.11877102167 -0.082990680081 -0.045766124293 -0.0057840913705 
0.036775483216 0.082050084912 0.13167861497 0.19143585785 0.2741326549 0.40358145525 0.61278620783 0.88131901077 0.97175791295 
0.73822238087 0.45482236669 0.25779756805 0.12879822939 0.03708602115 -0.035836041001 -0.099413498646 -0.15716695889 -0.2079435942 
-0.24665195261 -0.26647952881 -0.26294398634 -0.23683375718 -0.19370285293 -0.13955478136 -0.077652501956 -0.0053748904455 0.089359474477 
0.24558956729 0.60582084942 1.6368326534 1.7648661789 0.71323120191 0.35637295382 0.22213623106 0.15440336545 0.11178361355 
0.081980981944 0.060316330863 0.044719567539 0.034046373105 0.027118255242 0.022877006029 0.020539338233 0.019123340251 0.018044985846 
0.016923050934 0.015699530048 0.014743356274 0.015289708195 0.019391605856 0.029703232819 0.051215425054 0.089014250357 0.14708751739 
0.22088376242 0.28455662668 0.29637721996 0.24217958838 0.15451670594 0.07094098592 0.005801160576 -0.040873078564 -0.073530434974 
-0.096448621644 -0.11165375131 -0.12030326159 -0.12267809178 -0.1185017265 -0.10831894891 -0.09278298089 -0.073372008238 -0.052401645575 
0 0 
Abscissas 1 128 double
0 0.50172531026 1.0034506205 1.5051780118 2.0069055216 2.5086276492 3.0103495894 3.512076691 4.0138040745 
4.5155269229 5.01724941 5.5189769256 6.0207049394 6.5224331069 7.02416129 7.5258830979 8.0276040905 8.5293320777 
9.0310611624 9.5327839212 10.034505513 10.536231086 11.03795745 11.539682405 12.041407087 12.543130885 13.044854501 
13.546582123 14.048310671 14.550034251 15.05175652 15.553482327 16.055209197 16.556934571 17.058659451 17.560383278 
18.062106762 18.563831911 19.065557307 19.567281046 20.069004501 20.570729509 21.072454822 21.574179596 22.07590425 
22.57762982 23.079355621 23.581082074 24.082808711 24.584534183 25.086259304 25.587981634 26.08970308 26.591429203 
27.093156939 27.594880649 28.09660283 28.598327173 29.100052415 29.601764089 30.103469606 30.605191085 31.106920465 
31.608665977 32.110420252 32.612158421 33.113887002 33.615614041 34.117340088 34.619057667 35.120769494 35.622490611 
36.124218438 36.625945054 37.127670724 37.629395086 38.131118345 38.632843317 39.134569855 39.636298523 40.138029307 
40.639754241 41.141472834 41.643192854 42.144914563 42.646640262 43.148371128 43.650101391 44.151830799 44.653553076 
45.155264273 45.656984753 46.158721059 46.660457298 47.162193413 47.663923496 48.165641362 48.667356741 49.169066673 
49.670783564 50.172517036 50.674254764 51.176003625 51.677745839 52.179468827 52.681183952 53.182873644 53.684574642 
54.186317112 54.688054898 55.189772987 55.691493932 56.19322883 56.694962931 57.196692436 57.698422821 58.200159313 
58.701893786 59.203611116 59.705330668 60.207074126 60.708814503 61.210509958 61.712207939 62.213957977 62.715705967 
63.217424964 63.71914396 
ParallelTransportNormals 3 128 double
0.6338784223 0 0.77343270279 0.40944700021 -0.046265373977 0.87417240328 0.18501557812 -0.092530747954 0.97491210377 
0.019080400503 -0.11264969249 0.98017851395 -0.14352266945 -0.13127926419 0.9800065018 -0.19655610133 -0.13625021563 0.96964019797 
-0.24577395209 -0.14074552825 0.95891889481 -0.18186781057 -0.13118253345 0.97180287105 -0.11178398089 -0.12085181611 0.98597592888 
0.11275329369 -0.051293244465 0.95999323353 0.34960135524 0.022986112122 0.93080990434 0.5016495227 0.10228221755 0.83735975301 
0.64529847967 0.182075219 0.73754413894 0.67470205048 0.20147294705 0.70939446213 0.69258496437 0.21478033529 0.68847167389 
0.6625291254 0.19182184783 0.72150451172 0.62634308812 0.16422583861 0.7614369593 0.52469456045 0.087232720107 0.83172722775 
0.41277403979 0.0024884947066 0.90678106877 0.24001567063 -0.15495624322 0.92534722915 0.056031695559 -0.32581544801 0.93349046273 
-0.045261057662 -0.47706289548 0.85662749931 -0.13011538678 -0.6244116657 0.76286591126 -0.14345350879 -0.70566754952 0.68679198728 
-0.14294759886 -0.77412924209 0.61414202266 -0.12864637697 -0.81256434238 0.56569506439 -0.11151300544 -0.84483504403 0.52221693435 
-0.097972126364 -0.86187923359 0.49677271398 -0.085261751013 -0.87540339488 0.47549752926 -0.08696223733 -0.87440050639 0.47723142016 
-0.092462857836 -0.869566845 0.48503278828 -0.14822529066 -0.80942157611 0.55260158703 -0.21906260697 -0.73268685294 0.63809626252 
-0.37883883784 -0.28853655909 0.66331141959 -0.56805403912 0.2772290723 0.66857392749 -0.55416775984 0.60167871711 0.44637598662 
-0.47394386633 0.84730901121 0.14988423232 -0.39760443741 0.90139353461 -0.019528350023 -0.32184004081 0.92712279643 -0.17012891082 
-0.24426753232 0.90834986012 -0.30292266296 -0.16638710133 0.88199817402 -0.4326839054 -0.11915280269 0.84443743433 -0.51416638346 
-0.077932719856 0.80467694995 -0.58617429211 -0.07589106001 0.8073460008 -0.58475432619 -0.082538636569 0.81942534012 -0.56704906565 
-0.096928354833 0.87311562689 -0.45321246162 -0.11327604216 0.93732922245 -0.31506447142 -0.10464972315 0.96072602923 -0.095358093755 
-0.08895015347 0.97256252105 0.14744761815 -0.061577744483 0.91097118728 0.3514390371 -0.030684132267 0.82722977588 0.54372182115 
-0.0070753364792 0.72852302355 0.66941713231 0.014225932762 0.62507587428 0.77402030438 0.031045022247 0.51695684522 0.84650951563 
0.04631820188 0.4072264785 0.90792257841 0.061549564545 0.28477159487 0.94802031501 0.076765053263 0.15748641632 0.98002663941 
0.094533044462 0.030165385925 0.98731774026 0.11336400982 -0.097170574754 0.98431633632 0.13164831497 -0.1906425404 0.96957292188 
0.14968455974 -0.26874789375 0.94950128427 0.15825709491 -0.30173682585 0.9400945945 0.16214476091 -0.31239154232 0.93596742907 
0.14402423667 -0.27942238457 0.94719444579 0.11394885865 -0.22275672877 0.96676185762 0.045271126949 -0.12096408446 0.98053724696 
-0.0463897052 0.0076963026413 0.99086417728 -0.15919345356 0.1401591653 0.96079461697 -0.28562148187 0.27507230449 0.9046939694 
-0.38475947925 0.36455677104 0.84057853373 -0.46536063911 0.42318367184 0.77101902857 -0.5116051104 0.45230617284 0.72999798513 
-0.5330324737 0.46011655368 0.70959132902 -0.52994700151 0.46263562012 0.71026547689 -0.50771023717 0.46102070918 0.72740955275 
-0.47646104299 0.46248122473 0.74667158779 -0.43759857615 0.46653971452 0.76772277414 -0.40498488975 0.47120753072 0.78312212397 
-0.37807722548 0.47643174831 0.79336054605 -0.36403161437 0.47918796699 0.79866040347 -0.36275456098 0.47949412686 0.79905759513 
-0.37313055095 0.47662276116 0.79570236876 -0.39613827256 0.47030700336 0.78827957514 -0.42206733361 0.46275616825 0.77906826785 
-0.45145853001 0.45374161937 0.76773735873 -0.47618896378 0.446059668 0.75760005789 -0.49488160435 0.44010403246 0.74900901902 
-0.50815289705 0.4359510947 0.74276453319 -0.51373908695 0.43435359486 0.73984643444 -0.51674734886 0.4334562007 0.73830009 
-0.51575004878 0.43364662465 0.73888516543 -0.51611293723 0.43375568328 0.73856409834 -0.51879474065 0.43372602642 0.73669819578 
-0.523921981 0.43471130427 0.73241188631 -0.53361235708 0.43759042973 0.72360914663 -0.54266129139 0.44166126648 0.71438112963 
-0.550410827 0.4481462087 0.70429160842 -0.55622179199 0.45356001883 0.6963393954 -0.55778910535 0.45662905421 0.69306588288 
-0.55869730948 0.45762716431 0.69168030192 -0.55803501922 0.45369077132 0.69479319525 -0.55763574497 0.44911243685 0.69807932043 
-0.55792446437 0.44285492065 0.70181858311 -0.55813034574 0.43825022867 0.7045759267 -0.55809660277 0.43842663676 0.70449288751 
-0.55746503103 0.44069545417 0.70354611737 -0.55489966262 0.44973258771 0.69980543684 -0.55230514066 0.45858536428 0.69615045569 
-0.54960367289 0.46676185293 0.69280985085 -0.54775970895 0.47236343504 0.69052138843 -0.54952161142 0.46713734652 0.69265726199 
-0.5524873851 0.45801548603 0.69618375409 -0.56133678403 0.42985399551 0.7065065533 -0.57116640752 0.39769518426 0.71738552043 
-0.58665125933 0.34247455393 0.73147319781 -0.60250015219 0.285280578 0.74452690079 -0.62087436928 0.21439765801 0.75040800421 
-0.63897373316 0.14480565722 0.75497802471 -0.65473847335 0.086178819942 0.74841160947 -0.66992433968 0.030162281916 0.74171346921 
-0.6788858579 0.0022130174622 0.73359895407 -0.68721237761 -0.023801141015 0.72606598544 -0.68627541511 -0.021585595704 0.72701673059 
-0.68447717617 -0.017974000868 0.72870723518 -0.66493304988 0.01440203731 0.74563986974 -0.64667883678 0.044641255532 0.76145494966 
-0.64667883678 0.044641255532 0.76145494966 -0.64667883678 0.044641255532 0.76145494966 
FrenetTangent 3 128 double
-0.96250046822 -0.17252478674 0.20935149064 -0.96250046822 -0.17252478674 0.20935149064 -0.96530080464 -0.17427497203 0.19448030925 
-0.96843681865 -0.17790303162 0.17458705458 -0.97061513399 -0.18436224075 0.15465065746 -0.97082406224 -0.19468737128 0.13999095558 
-0.96835364172 -0.2097700273 0.13523224548 -0.96252899849 -0.23013219132 0.14344720835 -0.95246193751 -0.25574247973 0.16556582273 
-0.93713784198 -0.28593498731 0.20003461739 -0.91593879499 -0.31952568409 0.24281569358 -0.88933696917 -0.35519897764 0.28794694226 
-0.85920883237 -0.39206929949 0.32869719618 -0.82837423217 -0.4301303807 0.35886485907 -0.79952866352 -0.47033389814 0.37355045237 
-0.77413157841 -0.51427370356 0.36911090086 -0.75164469223 -0.56361533702 0.34259014656 -0.72911679768 -0.61935548394 0.29118289761 
-0.70099861734 -0.68083533509 0.21228326592 -0.65939582691 -0.74447496632 0.10466216117 -0.59559518213 -0.80276475734 -0.028898501725 
-0.50381727679 -0.84517009973 -0.17848152325 -0.38608768586 -0.86260615299 -0.3268744769 -0.25356988144 -0.85338364674 -0.45545435194 
-0.12136575604 -0.8246833016 -0.55241995377 -0.0014083993319 -0.78798726273 -0.61568993024 0.10044809985 -0.75372726629 -0.64946546273 
0.18309938659 -0.72910824828 -0.65945111792 0.24773268227 -0.71850830497 -0.64990332652 0.29595395143 -0.72461118047 -0.62237440161 
0.32856966597 -0.74927217705 -0.5750071124 0.34450731513 -0.7936550931 -0.50142427446 0.33920752167 -0.85668451602 -0.38862565183 
0.30200115308 -0.92878995381 -0.21481276788 0.21508847578 -0.97561334634 0.04376695131 0.069353920443 -0.92614919627 0.3707259095 
-0.097522819823 -0.74163085716 0.66368137787 -0.2252736757 -0.49881822555 0.83691824505 -0.29860146006 -0.28414804324 0.91109662362 
-0.33214004194 -0.12053444955 0.93549689418 -0.34035300589 -0.0018088981462 0.94029599556 -0.33194963578 0.081076101236 0.93980641896 
-0.31184235175 0.13407502838 0.94062651165 -0.28295576404 0.16014220732 0.94566934445 -0.24719887059 0.16018806063 0.95563199173 
-0.20597596424 0.13393670247 0.96934764759 -0.16053022289 0.080775421824 0.983720173 -0.11223770787 0.00080475972847 0.99368106015 
-0.062855779069 -0.10387031323 0.99260269447 -0.014593077882 -0.22797050343 0.97355867396 0.03016597753 -0.36282208956 0.93137003663 
0.069468328432 -0.49772967875 0.86454572941 0.10241845584 -0.62252303791 0.77587081861 0.12943604253 -0.7298281884 0.67126531738 
0.15199486294 -0.81590076013 0.55785617435 0.17208804644 -0.88011669198 0.44247069142 0.19174683369 -0.92395334126 0.33097337498 
0.21272576327 -0.95009534707 0.22818102707 0.23638404138 -0.96181574905 0.13796031987 0.26369439729 -0.96252612627 0.063314461908 
0.29530220968 -0.95538214816 0.006446388829 0.33158591849 -0.94291034641 -0.03115858303 0.37268108098 -0.92668483369 -0.048621300707 
0.41843604996 -0.90710042213 -0.045608072483 0.46828870124 -0.88329113669 -0.022415622766 0.52109954497 -0.8532675381 0.01974266078 
0.57504483656 -0.81436848712 0.078277730827 0.62772410176 -0.76407839753 0.14881752079 0.67659619552 -0.70105927577 0.22524093781 
0.71966281355 -0.62594917939 0.30045475469 0.75604426408 -0.54142917751 0.36776557273 0.78607168911 -0.45148451797 0.42220022455 
0.81086042603 -0.36033454355 0.46115549029 0.83168318594 -0.27160496455 0.48428692059 0.84949435236 -0.18800746363 0.49296301984 
0.86476720382 -0.11136974545 0.4896677067 0.87758423963 -0.04280709826 0.47750754412 0.88784549952 0.017124059475 0.45982293936 
0.89546490883 0.068310894288 0.43985931703 0.90048503286 0.11096100001 0.42049299883 0.90310060697 0.14548753843 0.4040330059 
0.90362111507 0.17236321397 0.3921221785 0.90240719818 0.19198716466 0.3857488526 0.89981045759 0.20459260289 0.38533492867 
0.89612603267 0.21018663729 0.39087045307 0.89154882489 0.20853726446 0.40206081899 0.88612096599 0.19920309907 0.41845879003 
0.87966803454 0.18158232664 0.43955887849 0.87173184425 0.15497317254 0.464829977 0.86150761225 0.11866282017 0.49368387571 
0.84779993669 0.07204062608 0.52540024318 0.82903831648 0.014752964953 0.55899715548 0.80337445793 -0.053089637201 0.59310283321 
0.7688908254 -0.13067621534 0.6258838753 0.72393993767 -0.21628708398 0.65508080719 0.66757256528 -0.30718906261 0.67821954403 
0.59994001553 -0.39977357453 0.69300293424 0.5225113901 -0.48998464565 0.69777997552 0.43797254773 -0.57393135211 0.69194136349 
0.3497992937 -0.6485186923 0.67606505594 0.26165532318 -0.71186130382 0.65175913954 0.17683654756 -0.76337230759 0.62128218665 
0.097917436642 -0.80357138728 0.58709897048 0.026627944615 -0.83376315588 0.55147978428 -0.036092303577 -0.85568817263 0.516231631 
-0.089948168153 -0.87122938909 0.48256468854 -0.13512278483 -0.88221950766 0.4510327852 -0.17213418025 -0.89030461309 0.42157741864 
-0.20172974122 -0.89687019634 0.39361016556 -0.22480788923 -0.90300112875 0.3661289041 -0.2423695289 -0.90945083614 0.33787007579 
-0.25548754091 -0.91661762355 0.30747072811 -0.26527421988 -0.92452677131 0.27364180491 -0.27284836331 -0.93282678734 0.23534645835 
-0.27929380957 -0.94082296319 0.19195603629 -0.28561933601 -0.94755326939 0.1434029169 -0.29270105356 -0.95193466125 0.090257930142 
-0.30121675881 -0.95295915889 0.03372396327 -0.31158698227 -0.94990301802 -0.024450129425 -0.32390900152 -0.94251276556 -0.082174481991 
-0.33792767384 -0.93110687541 -0.13727663245 -0.35304772852 -0.91657025984 -0.18776650437 -0.36838406316 -0.90025466613 -0.23202309825 
-0.38287520957 -0.88380070981 -0.26889194713 -0.39541697074 -0.86892778946 -0.2976741775 -0.4050048832 -0.85722174752 -0.3180281751 
-0.41086789266 -0.84993074254 -0.32985649556 -0.41086789266 -0.84993074254 -0.32985649556 
FrenetNormal 3 128 double
-0.19647991221 -0.088773976278 -0.9764808371 -0.19647991221 -0.088773976278 -0.9764808371 -0.17318628936 -0.1301649392 -0.97624976199 
-0.1343658134 -0.2173452625 -0.96680239194 -0.069623618248 -0.4000296347 -0.91385384124 0.058565924737 -0.75862841382 -0.64888593929 
0.22013500919 -0.97318453274 0.066726628615 0.2710894135 -0.80298930718 0.53077179883 0.29757913429 -0.66449400202 0.6854884245 
0.33680700234 -0.59118343294 0.73284595366 0.38923513352 -0.55995561323 0.73139983733 0.44960744677 -0.56462465284 0.69213592972 
0.51037904438 -0.61201650609 0.60411011193 0.5557559113 -0.71135976489 0.43023557727 0.54359751419 -0.83115251525 0.11699247395 
0.4367775448 -0.85599332495 -0.27658778715 0.3161594015 -0.76373404699 -0.56280861606 0.26416889394 -0.64718155171 -0.71510197497 
0.28189101879 -0.53794734655 -0.79444956156 0.34992896463 -0.42714796707 -0.83372317585 0.44966971418 -0.30338112182 -0.84009347282 
0.56239241653 -0.16410619698 -0.81042206655 0.66956177484 -0.018311074371 -0.74253062848 0.7582692229 0.11698794142 -0.64135918732 
0.82596860369 0.22474578438 -0.51697698026 0.87941153832 0.29213011069 -0.37589273031 0.92809566065 0.30621345605 -0.21182956359 
0.97058690532 0.24072797677 0.0033317307093 0.9487466391 0.04404399951 0.31295357627 0.71127566543 -0.26772400099 0.64993137104 
0.33748199408 -0.47547671874 0.81242094607 0.058956079184 -0.51477633957 0.85529497891 -0.12192078441 -0.44967050438 0.88483431207 
-0.25532887487 -0.29590768105 0.92045956454 -0.36311132508 -0.038289593067 0.93095868472 -0.42945358432 0.3077050942 0.84905076051 
-0.42271919756 0.6345846399 0.64700140249 -0.35304524868 0.84241227083 0.40706340825 -0.25342322424 0.94398538701 0.21134866577 
-0.13552042418 0.98760928372 0.079133541191 0.010616465249 0.99992701705 0.0057663884698 0.21488759026 0.97660309353 -0.0083499258992 
0.53320737747 0.84409869301 0.056456080793 0.90679616311 0.36590830248 0.20936053292 0.90924971141 -0.30252224647 0.28591126717 
0.71842054735 -0.65188539611 0.2427289589 0.57009233608 -0.80600587572 0.15921449888 0.46712819071 -0.88257090494 0.053477576517 
0.39051559459 -0.91782977996 -0.071316655894 0.32847918325 -0.92071617667 -0.2106730837 0.27515210332 -0.89277983243 -0.35670084222 
0.2288477993 -0.83557653484 -0.49944022583 0.19058719261 -0.75324246771 -0.62952546164 0.16310281192 -0.65206919561 -0.74040748029 
0.14922126278 -0.53900139219 -0.82898161255 0.1516961337 -0.42013715064 -0.89469159919 0.17322637584 -0.30007538636 -0.93805510777 
0.21744693457 -0.18163879772 -0.95902251163 0.29090255223 -0.065418222752 -0.9545135731 0.40474117402 0.050825377873 -0.91301772328 
0.57189738749 0.17135665229 -0.80222831906 0.77767790487 0.29187935658 -0.5567975552 0.91422560144 0.37564217323 -0.15193586597 
0.88485159707 0.39581977775 0.24569158453 0.77205284965 0.39671331044 0.49654098187 0.65810012354 0.4164228541 0.62729278171 
0.56085920342 0.46206818075 0.68697157895 0.47783753007 0.52913613473 0.70120342682 0.40572962209 0.61019828548 0.68047154691 
0.34385912384 0.69724646019 0.62897398731 0.2934342658 0.78263849895 0.54897478231 0.25565879778 0.85932904558 0.44293585376 
0.23008953784 0.92080585388 0.31492123467 0.21379316196 0.96159259015 0.17213998509 0.20201661218 0.97905599684 0.025271395786 
0.18978550927 0.97526013074 -0.11335403766 0.17363331401 0.95676752893 -0.23333959767 0.15188483186 0.93239186817 -0.32798841751 
0.1241109945 0.91065296116 -0.39409091004 0.089621481912 0.89879885906 -0.42910208683 0.045752979756 0.90290701383 -0.42739395085 
-0.015508747751 0.92802722027 -0.37218941036 -0.11816774364 0.97119416021 -0.20692580201 -0.31872464012 0.91138509833 0.26036859705 
-0.43218296711 0.21310988613 0.87624315083 -0.31889879342 -0.34134518109 0.88418721258 -0.24793590268 -0.55908468873 0.79117134617 
-0.21672465529 -0.6696482664 0.71035316787 -0.21037891668 -0.73839113804 0.64071775274 -0.22278665492 -0.78536851044 0.57754862063 
-0.25115794025 -0.81803140562 0.51744014965 -0.2933109988 -0.83962510832 0.45716335752 -0.34720618575 -0.85094574592 0.39413094534 
-0.41017887451 -0.85172214524 0.32607158449 -0.47898291167 -0.84097478507 0.25166799797 -0.54976783752 -0.81767210477 0.1707854031 
-0.61840052199 -0.78129051869 0.084651756103 -0.68085728959 -0.73240254127 -0.0044574377666 -0.73406332998 -0.67264257895 -0.093289809517 
-0.77601917074 -0.60486344112 -0.17870216627 -0.80630387973 -0.53237864335 -0.25777322135 -0.825486179 -0.45879145912 -0.32875973798 
-0.83507619713 -0.38724576885 -0.39075370696 -0.83625190409 -0.32083813188 -0.44468600838 -0.83000556586 -0.26203500986 -0.4923702004 
-0.81566549807 -0.21358822505 -0.53765217881 -0.79043781781 -0.17850348515 -0.58595610925 -0.74849673865 -0.16001430649 -0.64354335825 
-0.68082308486 -0.16050224475 -0.71464603585 -0.57972911437 -0.17805871829 -0.79511587004 -0.45164249176 -0.20245154099 -0.86892602285 
-0.32307126292 -0.21880222801 -0.92073369879 -0.22239538656 -0.21748488165 -0.95038971916 -0.1597290695 -0.19730888244 -0.96724135006 
-0.13020303984 -0.160957439 -0.97833525504 -0.12527405346 -0.11143669499 -0.98584394026 -0.13694111623 -0.0516873949 -0.98922977305 
-0.15981841583 0.015586864722 -0.98702336528 -0.18998561552 0.087489309967 -0.97788091634 -0.22420517368 0.16085317499 -0.96117547627 
-0.2599612122 0.23252369504 -0.93720483321 -0.29468386302 0.2994110319 -0.90747697208 -0.32615840219 0.35886230991 -0.87455047836 
-0.35276105027 0.40888814635 -0.84164726886 -0.37326986361 0.44813835148 -0.81230636268 -0.38737612598 0.47594822189 -0.78956508731 
-0.3949252515 0.49201987006 -0.77585468561 -0.3949252515 0.49201987006 -0.77585468561 
FrenetBinormal 3 128 double
0.18705211244 -0.98099662543 0.05154733878 0.18705211244 -0.98099662543 0.05154733878 0.1954504176 -0.97605600389 0.095466284813 
0.20994274571 -0.95974556431 0.18658106902 0.2303449879 -0.8977677069 0.37543885121 0.23253101436 -0.62175538374 0.74789676436 
0.11760868293 0.094384325422 0.98856451323 -0.0069611027078 0.54977026754 0.83528689441 -0.065291013365 0.70217056713 0.70900887034 
-0.091289146645 0.75415073537 0.6503252725 -0.097735022768 0.76442988457 0.63725569194 -0.083264032316 0.74500515951 0.6618416829 
-0.035684918834 0.68681690477 0.72595394199 0.070224629134 0.55583733276 0.82831960074 0.25545187173 0.29659993367 0.92020259757 
0.45819829296 -0.052895987199 0.88727466935 0.57885532691 -0.31471901331 0.75224893032 0.63135052927 -0.44447139801 0.63548539364 
0.65508655307 -0.4970672981 0.56902171237 0.66539226263 -0.51312926126 0.54217294111 0.66563017298 -0.51335040596 0.54167133349 
0.65565457479 -0.50868129378 0.55799679203 0.63452606606 -0.50554458693 0.58463778711 0.60060810919 -0.5079863906 0.61742993622 
0.55049633875 -0.51902483993 0.65388607307 0.47606025111 -0.54197423575 0.69255365504 0.35853678181 -0.58148820055 0.73028956497 