# vtk DataFile Version 4.2
vtk output
ASCII
DATASET POLYDATA
POINTS 128 float
0 0 0 -0.257031 0.117823 0.182527 -0.755683 0.355725 0.542898 
-1.1618 0.569909 0.850237 -1.49372 0.75639 1.10997 -1.85225 0.944641 1.38332 
-2.2384 1.12807 1.66709 -2.62991 1.29135 1.94293 -3.03022 1.42706 2.20857 
-3.44895 1.52898 2.46516 -3.88724 1.58479 2.70644 -4.34234 1.58084 2.92356 
-4.80498 1.50686 3.10669 -5.26369 1.35636 3.24736 -5.70701 1.13797 3.34674 
-6.12512 0.865758 3.4099 -6.51802 0.554357 3.44503 -6.88988 0.217851 3.46059 
-7.24788 -0.134423 3.45946 -7.59854 -0.495373 3.43818 -7.93547 -0.860548 3.3651 
-8.24434 -1.22592 3.20158 -8.49216 -1.58261 2.9435 -8.64272 -1.92099 2.6044 
-8.69653 -2.24151 2.21635 -8.66997 -2.54872 1.81681 -8.57525 -2.84381 1.42135 
-8.42245 -3.12648 1.03527 -8.22043 -3.39725 0.662907 -7.97739 -3.6571 0.307983 
-7.70067 -3.90802 -0.0277846 -7.39702 -4.15261 -0.34377 -7.07198 -4.39495 -0.640079 
-6.73046 -4.63986 -0.916828 -6.37804 -4.89208 -1.17033 -6.02001 -5.15678 -1.39467 
-5.65444 -5.44502 -1.5834 -5.27816 -5.76993 -1.72493 -4.92343 -6.1287 -1.75284 
-4.64459 -6.50499 -1.5755 -4.4896 -6.84446 -1.21565 -4.49582 -7.0756 -0.767583 
-4.6374 -7.20257 -0.294815 -4.85486 -7.27105 0.160413 -5.12168 -7.29741 0.583926 
-5.43098 -7.2801 0.978061 -5.7716 -7.21703 1.34333 -6.12965 -7.10598 1.67921 
-6.49185 -6.94515 1.98835 -6.84553 -6.73346 2.27559 -7.18025 -6.47459 2.54701 
-7.48733 -6.17567 2.80963 -7.76159 -5.84592 3.07133 -8.00048 -5.49597 3.34063 
-8.2027 -5.13578 3.62635 -8.36736 -4.7757 3.93803 -8.4848 -4.44054 4.29447 
-8.53856 -4.16709 4.71962 -8.51705 -3.9979 5.19912 -8.41409 -3.97679 5.68703 
-8.24345 -4.09126 6.15137 -8.03456 -4.28295 6.57362 -7.80176 -4.51511 6.9523 
-7.54615 -4.77092 7.29987 -7.26999 -5.03847 7.62351 -6.97629 -5.31044 7.92431 
-6.65467 -5.59381 8.18374 -6.2845 -5.90775 8.36401 -5.89918 -6.24448 8.40581 
-5.58343 -6.56999 8.23427 -5.36918 -6.86851 7.8773 -5.23615 -7.14295 7.45802 
-5.16069 -7.40519 7.03918 -5.11836 -7.6747 6.62211 -5.09556 -7.9641 6.21168 
-5.08974 -8.27873 5.81893 -5.0986 -8.62466 5.45483 -5.11962 -9.00896 5.13035 
-5.1506 -9.43608 4.86495 -5.18968 -9.90701 4.68746 -5.23204 -10.4075 4.62165 
-5.26943 -10.9056 4.68398 -5.29336 -11.3754 4.86865 -5.29538 -11.7994 5.14384 
-5.26911 -12.1723 5.48043 -5.21076 -12.5034 5.85454 -5.11676 -12.8024 6.24717 
-4.98366 -13.0789 6.64517 -4.80856 -13.3411 7.0365 -4.58931 -13.5955 7.41018 
-4.32614 -13.8454 7.75797 -4.02257 -14.0893 8.07559 -3.68284 -14.3226 8.36295 
-3.31194 -14.5368 8.62589 -2.91469 -14.7229 8.87089 -2.49571 -14.8717 9.10471 
-2.06049 -14.9766 9.33311 -1.61611 -15.0349 9.56019 -1.16909 -15.0472 9.78912 
-0.724688 -15.0195 10.0218 -0.286622 -14.9588 10.2596 0.143982 -14.873 10.5032 
0.567027 -14.7697 10.7529 0.983872 -14.6553 11.0082 1.39631 -14.5355 11.268 
1.80669 -14.4153 11.5308 2.21741 -14.2995 11.7951 2.63092 -14.1936 12.0594 
3.0493 -14.1045 12.3222 3.47389 -14.0409 12.5827 3.90461 -14.0134 12.8401 
4.33812 -14.0359 13.0936 4.7676 -14.1218 13.3423 5.17843 -14.2816 13.5846 
5.55489 -14.5205 13.8194 5.88169 -14.8292 14.0467 6.14759 -15.1943 14.2681 
6.35267 -15.5981 14.4884 6.50056 -16.0238 14.7121 6.59953 -16.4589 14.9418 
6.65649 -16.8947 15.1805 6.67116 -17.3315 15.4344 6.64651 -17.7656 15.7042 
6.60098 -18.1749 15.9708 6.53556 -18.5543 16.2312 6.37833 -18.9712 16.5544 
6.11208 -19.4288 16.9471 5.96182 -19.6548 17.1486 
LINES 1 129
128 0 1 2 3 4 5 6 7 8 9 10 11 12 13 14 15 16 17 18 19 20 21 22 23 24 25 26 27 28 29 30 31 32 33 34 35 36 37 38 39 40 41 42 43 44 45 46 47 48 49 50 51 52 53 54 55 56 57 58 59 60 61 62 63 64 65 66 67 68 69 70 71 72 73 74 75 76 77 78 79 80 81 82 83 84 85 86 87 88 89 90 91 92 93 94 95 96 97 98 99 100 101 102 103 104 105 106 107 108 109 110 111 112 113 114 115 116 117 118 119 120 121 122 123 124 125 126 127 

CELL_DATA 1
FIELD FieldData 2
Length 1 1 double
53.608975847 
Tortuosity 1 1 double
1.003560906 
POINT_DATA 128
SCALARS MaximumInscribedSphereRadius float
LOOKUP_TABLE default
1.24 1.25392 1.26784 1.46217 1.66718 1.5565 1.43055 1.28288 1.13374 
1.2712 1.43489 1.36954 1.27793 1.28685 1.30927 1.40086 1.50314 1.53488 
1.55386 1.54869 1.53843 1.49402 1.44145 1.60172 1.81479 1.83173 1.79584 
1.70935 1.60778 1.57043 1.55433 1.55 1.55 1.6111 1.69707 1.86606 
2.07235 2.19267 2.27083 2.11472 1.83997 1.75762 1.75591 1.67265 1.55337 
1.54974 1.60132 1.80519 2.08798 2.21044 2.24279 2.25098 2.24444 2.31139 
2.42703 2.45344 2.41571 2.28599 2.08564 1.91347 1.76266 1.74872 1.84181 
2.01952 2.26868 2.37154 2.34041 2.42611 2.62669 2.61088 2.39605 2.32678 
2.39448 2.39058 2.3137 2.2542 2.21393 2.22273 2.29017 2.36128 2.43707 
2.43685 2.33734 2.19842 2.00581 1.87749 1.84303 1.78096 1.6752 1.63716 
1.71563 1.78283 1.82901 1.82128 1.7036 1.5857 1.46729 1.43573 1.61673 
1.84564 2.20388 2.39067 2.06207 1.79958 1.76026 1.73019 1.73553 1.73043 
1.6796 1.65033 1.7301 1.78793 1.71711 1.68636 1.92537 2.1329 2.09759 
2.0907 2.34501 2.59081 2.73742 2.86881 2.75877 2.66093 2.8382 3.00076 
2.89538 2.79 
TEXTURE_COORDINATES TCoords 2 float
0 0 0.00787402 0 0.015748 0 0.023622 0 0.0314961 
0 0.0393701 0 0.0472441 0 0.0551181 0 0.0629921 0 
0.0708661 0 0.0787402 0 0.0866142 0 0.0944882 0 0.102362 
0 0.110236 0 0.11811 0 0.125984 0 0.133858 0 
0.141732 0 0.149606 0 0.15748 0 0.165354 0 0.173228 
0 0.181102 0 0.188976 0 0.19685 0 0.204724 0 
0.212598 0 0.220472 0 0.228346 0 0.23622 0 0.244094 
0 0.251969 0 0.259843 0 0.267717 0 0.275591 0 
0.283465 0 0.291339 0 0.299213 0 0.307087 0 0.314961 
0 0.322835 0 0.330709 0 0.338583 0 0.346457 0 
0.354331 0 0.362205 0 0.370079 0 0.377953 0 0.385827 
0 0.393701 0 0.401575 0 0.409449 0 0.417323 0 
0.425197 0 0.433071 0 0.440945 0 0.448819 0 0.456693 
0 0.464567 0 0.472441 0 0.480315 0 0.488189 0 
0.496063 0 0.503937 0 0.511811 0 0.519685 0 0.527559 
0 0.535433 0 0.543307 0 0.551181 0 0.559055 0 
0.566929 0 0.574803 0 0.582677 0 0.590551 0 0.598425 
0 0.606299 0 0.614173 0 0.622047 0 0.629921 0 
0.637795 0 0.645669 0 0.653543 0 0.661417 0 0.669291 
0 0.677165 0 0.685039 0 0.692913 0 0.700787 0 
0.708661 0 0.716535 0 0.724409 0 0.732283 0 0.740157 
0 0.748031 0 0.755906 0 0.76378 0 0.771654 0 
0.779528 0 0.787402 0 0.795276 0 0.80315 0 0.811024 
0 0.818898 0 0.826772 0 0.834646 0 0.84252 0 
0.850394 0 0.858268 0 0.866142 0 0.874016 0 0.88189 
0 0.889764 0 0.897638 0 0.905512 0 0.913386 0 
0.92126 0 0.929134 0 0.937008 0 0.944882 0 0.952756 
0 0.96063 0 0.968504 0 0.976378 0 0.984252 0 
0.992126 0 1 0 
FIELD FieldData 7
Curvature 1 128 double
0 0.015620528838 0.03066926108 0.04739125232 0.066295819253 0.087644623697 0.11139013106 0.13707578589 0.16374353372 
0.18989380081 0.21366991328 0.23329139426 0.2477407064 0.25730791407 0.26369150223 0.26950284749 0.27740192695 0.2892200552 
0.30530619549 0.32408646288 0.34211511615 0.35464597465 0.35715255598 0.34717162349 0.3254876569 0.29560838167 0.26223017455 
0.22972245601 0.20151460559 0.18035770066 0.16884630871 0.16976272039 0.18605284786 0.22115856482 0.28044877437 0.37296985433 
0.51155407936 0.70576753685 0.9369634313 1.1222147983 1.1467715295 0.99780815616 0.7802585494 0.5850360635 0.43876348905 
0.33479650489 0.26028069717 0.2051179692 0.16330791228 0.13280857601 0.11580024623 0.11737639934 0.13991615009 0.18055457406 
0.23525972802 0.29981477341 0.36760409341 0.42846267445 0.47115984151 0.48981470121 0.48822738324 0.47764681411 0.47032498177 
0.47456016514 0.49267119454 0.51954574103 0.54200656961 0.5417809781 0.50570803695 0.43618535113 0.34957816368 0.2645523356 
0.19482308186 0.15105553967 0.1427523746 0.16748939471 0.21149388759 0.26326643786 0.31380815214 0.35370561648 0.37415160982 
0.37087252552 0.34689710113 0.31075083172 0.27207309494 0.23799588257 0.21216557479 0.19510268161 0.18508146665 0.17943063564 
0.17558558858 0.17168079335 0.16673771553 0.16045856723 0.15285123739 0.1440022471 0.13384487811 0.12216248619 0.10877159522 
0.093486465195 0.076294110494 0.057295263812 0.03673891582 0.015270874122 0.012097588361 0.03611371512 0.062768996811 0.091081407694 
0.12077893903 0.15125307715 0.18136714803 0.20937503552 0.23291897974 0.24972881867 0.2581476065 0.2579048249 0.25011929835 
0.23683539298 0.22012220122 0.20146624847 0.18153695122 0.16031641666 0.13742902703 0.11255440713 0.085639650101 0.056950231918 
0.027053387441 0 
Torsion 1 128 double
0 0 -0.0050254956748 -0.0059309678522 -0.0065108739119 -0.0071805059733 -0.0084278657853 -0.010793822601 -0.0148392059 
-0.021224341143 -0.030436853464 -0.04276796706 -0.058038207247 -0.074894023131 -0.090326737274 -0.099771508127 -0.098401034468 -0.083668185264 
-0.057018033605 -0.023017706451 0.013211934094 0.048231277068 0.080925413145 0.11196823579 0.14327954482 0.17772269541 0.21904801646 
0.27165023901 0.33865520968 0.41651841787 0.48652929506 0.51613279281 0.48616381856 0.41404736696 0.33190094738 0.25891272293 
0.19934179053 0.15037868965 0.10880441513 0.073009950484 0.040201693431 0.0041217021847 -0.040136512775 -0.091979723508 -0.14892681415 
-0.21111940636 -0.28425050368 -0.38105905357 -0.52342667881 -0.73158971814 -0.95197164941 -0.97947826822 -0.76885380243 -0.53181353546 
-0.36225773975 -0.25010302034 -0.17353912357 -0.11831244341 -0.076536928713 -0.044074631226 -0.019984027507 -0.0060861671438 -0.0053378969121 
-0.018823965776 -0.043434583205 -0.073493682583 -0.10481129426 -0.13794325165 -0.17862556539 -0.2374594962 -0.33289097033 -0.49924007973 
-0.78687284317 -1.1486126521 -1.1797458681 -0.82732193774 -0.52655752786 -0.35972525162 -0.27522500284 -0.23651802522 -0.22579958452 
-0.23477837182 -0.25916318019 -0.29488597464 -0.33467385759 -0.36551947363 -0.37010016854 -0.33673091569 -0.26941539997 -0.1842361257 
-0.09729735948 -0.018215494232 0.048637527049 0.10123928079 0.13859080415 0.16060143822 0.16913663764 0.16733144883 0.15926449815 
0.15010302458 0.14656093827 0.16562523925 0.27964762586 1.3845991958 2.2678913777 0.2617668497 0.07043670153 0.0068677443934 
-0.028031781098 -0.053117935625 -0.073599502356 -0.091651874835 -0.10868931733 -0.12515462175 -0.14099152652 -0.15554359318 -0.16747228993 
-0.17463517629 -0.17513255097 -0.16782492821 -0.15284704849 -0.13227728972 -0.10870550927 -0.084790056661 -0.062191222832 -0.041515518037 
0 0 
Abscissas 1 128 double
0 0.50194524633 1.0038904927 1.50583467 2.0077787841 2.5097255236 3.0116723903 3.5136149737 4.0155572669 
4.5175044339 5.0194520473 5.5213958335 6.023339181 6.5252868009 7.0272349947 7.5291795936 8.0311236364 8.5330666833 
9.0350095501 9.5369558948 10.038902971 10.540848927 11.042794616 11.544737182 12.046678975 12.548625452 13.05057319 
13.552517007 14.054459656 14.556404556 15.0583502 15.560296244 16.062242435 16.564188847 17.06613535 17.568080914 
18.070026058 18.571970192 19.07391383 19.575857869 20.07780211 20.579746586 21.081691161 21.583636464 22.085582088 
22.587527306 23.08947233 23.59141756 24.093362897 24.595309179 25.097255992 25.599202128 26.101147852 26.603092414 
27.105036207 27.606980439 28.108924987 28.610870586 29.112816992 29.614763693 30.116710617 30.618655827 31.120599699 
31.622543192 32.124486366 32.626431794 33.128379287 33.630324797 34.132268356 34.634211522 35.136154327 35.638100939 
36.140051134 36.64199761 37.143940296 37.645883526 38.147827357 38.649772129 39.151718025 39.653673636 40.155641594 
40.657592196 41.159520131 41.661451119 42.163386268 42.665328951 43.167282639 43.669234392 44.171183082 44.673131381 
45.175079006 45.677020254 46.178949587 46.680885645 47.182835419 47.684784646 48.186732653 48.688679773 49.190624724 
49.692566556 50.194499971 50.696438253 51.198391161 51.700341943 52.202285549 52.70423036 53.206179779 53.7081275 
54.210067781 54.712012045 55.21397645 55.715935425 56.217862572 56.719791533 57.221732704 57.723673588 58.225612264 
58.72755222 59.229503944 59.73145542 60.233404008 60.735351421 61.237280201 61.739210544 62.241176111 62.743141832 
63.245110373 63.747078914 
ParallelTransportNormals 3 128 double
0.58380299879 0 0.81189534954 0.59461523626 -0.0054863702844 0.8038526619 0.60542747373 -0.010972740569 0.79580997425 
0.60140296126 -0.0088713689941 0.79886918255 0.59650032086 -0.0063209093091 0.8025854677 0.58130480259 0.00026614434045 0.81342563637 
0.56561114444 0.0070485552535 0.82461057649 0.53535677285 0.015329598441 0.84362796631 0.50411586258 0.023712179146 0.86317603167 
0.45099082946 0.025985137644 0.88999727139 0.39586166885 0.027698582659 0.91748458162 0.32840354255 0.011576148508 0.94147137172 
0.25953211894 -0.0065908529456 0.96505688925 0.21028166282 -0.032411274182 0.97558260446 0.16366704385 -0.05925983881 0.98435389487 
0.1372076785 -0.079881487535 0.98684381318 0.11386594091 -0.099539952851 0.98836212476 0.076644727954 -0.13652102561 0.98605775014 
0.036915142019 -0.17663273257 0.98306251924 -0.055277851023 -0.28524274476 0.94224047116 -0.15850980537 -0.40826566267 0.89345918454 
-0.22959038122 -0.5326352347 0.79564355911 -0.2929859568 -0.65732669145 0.68610747484 -0.30607707877 -0.72406134106 0.6126570148 
-0.30668948405 -0.77641900166 0.5481580938 -0.29786202672 -0.80692350885 0.50830253069 -0.2864921568 -0.83154236551 0.47508409631 
-0.27573663673 -0.84658283968 0.45470056512 -0.26516415677 -0.85876951944 0.43814107988 -0.2603180358 -0.86366936813 0.43160824952 
-0.25736669933 -0.86615809054 0.42839312075 -0.26502688036 -0.86059438578 0.43457570557 -0.27658602842 -0.85207199505 0.44421127206 
-0.30642026806 -0.82974335256 0.46378087755 -0.34369548644 -0.80179328676 0.48739527662 -0.42201699017 -0.73402640424 0.51659608391 
-0.51877899044 -0.6483713775 0.54830664672 -0.67493113977 -0.45749119438 0.49304376633 -0.86019605575 -0.2150301435 0.3951469206 
-0.93714846696 -0.021189034061 0.18274887838 -0.95925839804 0.14803406681 -0.087625199044 -0.92057263697 0.22057794686 -0.27719739953 
-0.85640883937 0.2526058523 -0.43290744468 -0.78878860994 0.26067440486 -0.54539804519 -0.71964216133 0.25816348528 -0.63880470331 
-0.65913944353 0.24588171985 -0.7065003052 -0.60276335002 0.22893523145 -0.76192112999 -0.56581962104 0.21285275869 -0.79574926373 
-0.53894477693 0.19721797589 -0.81838913883 -0.53223950387 0.19438007502 -0.82394624207 -0.53686955853 0.19873404006 -0.81990280315 
-0.55367811924 0.22168781937 -0.80131663905 -0.57791174609 0.25598164732 -0.77386397721 -0.60921322308 0.31574983792 -0.72024317897 
-0.6451963748 0.39239199683 -0.64928886346 -0.6745580449 0.49520960949 -0.50380911346 -0.69915940244 0.61684526747 -0.30475157191 
-0.67805442152 0.68238228769 -0.053420777434 -0.62185140428 0.70484099336 0.23805080695 -0.56051936939 0.68369535998 0.44327439516 
-0.49529854287 0.62948916795 0.58310524961 -0.44404177891 0.5835979641 0.6760530994 -0.4037041158 0.54420860697 0.73234111231 
-0.35899580198 0.50199879664 0.78351120476 -0.31059686095 0.45740736352 0.83035966689 -0.20278484476 0.36120827942 0.88784146067 
-0.040557474284 0.21774268698 0.9550621294 0.17205599546 0.0059211056185 0.9206396459 0.43421560129 -0.2731169338 0.78626845581 
0.58355181393 -0.45180879712 0.66147428273 0.62913188846 -0.53821898541 0.54548745244 0.65209240321 -0.58482467526 0.48222836241 
0.6537683489 -0.59397510057 0.46858505797 0.65437444588 -0.58748533142 0.47510144357 0.65388990991 -0.56505152148 0.50216916701 
0.65524320733 -0.52219102658 0.54113755274 0.65863012061 -0.45672781341 0.59327436582 0.66548620003 -0.35698976938 0.64336756528 
0.67648695037 -0.2163030104 0.69101922529 0.68800409111 -0.055442589686 0.70642084914 0.70017738306 0.13105148401 0.68084398101 
0.70652873333 0.29517500697 0.6295359608 0.70527568979 0.43007898652 0.5446189104 0.69849211499 0.53958170111 0.46099583974 
0.68417463167 0.61448180738 0.37913547952 0.6669135327 0.67650224951 0.30603497599 0.64535415014 0.71971573602 0.24572566286 
0.62252356132 0.75713150989 0.19310344038 0.59767987111 0.78536593868 0.15265461046 0.57032536507 0.81231047199 0.11516703866 
0.53865196559 0.837036236 0.08277317311 0.49998327976 0.86302725887 0.048915985857 0.44824667751 0.89138191581 0.012325162732 
0.38870808431 0.91853639419 -0.026205308963 0.31325919968 0.94324339594 -0.068691229229 0.23669347154 0.96305645294 -0.11072483163 
0.15763452493 0.97194436845 -0.15174868895 0.084817143778 0.97706926737 -0.18974389925 0.027275258344 0.97298462675 -0.22032685299 
-0.022857867773 0.96836618305 -0.24729948351 -0.052991516261 0.96230677171 -0.26452627465 -0.077900428675 0.95713755316 -0.2788635872 
-0.08710366467 0.95464427455 -0.28451506084 -0.092766421095 0.95312639398 -0.28795899416 -0.086476094552 0.95490157395 -0.28395000702 
-0.076293027583 0.95751646158 -0.27748484781 -0.051213045732 0.9633447804 -0.26162029839 -0.020271234412 0.96920967417 -0.24230518929 
0.036338864798 0.97523472549 -0.2078804698 0.10039767621 0.97824398712 -0.16926065029 0.20212934483 0.96600048942 -0.10942355193 
0.30784906807 0.94642650068 -0.046770404033 0.43694470258 0.88388496906 0.032388968043 0.56189986917 0.81591637628 0.11079723566 
0.65898281174 0.71141465078 0.18414932312 0.7497703126 0.60829797341 0.25494279884 0.79198849493 0.51586693928 0.3059965907 
0.8312006673 0.42659738435 0.35525859375 0.84278591026 0.36638360881 0.38805304562 0.85347265999 0.30769143006 0.42019091112 
0.85370119339 0.26671022341 0.44468629027 0.85353005935 0.225913533 0.46925600148 0.84701784968 0.18804435529 0.49500505643 
0.83980205106 0.14948254323 0.52148606053 0.81672691708 0.095308319061 0.5644656568 0.79485264426 0.043953394749 0.60520853679 
0.79485264426 0.043953394749 0.60520853679 0.79485264426 0.043953394749 0.60520853679 
FrenetTangent 3 128 double
-0.76732196104 0.33711172926 0.54550223657 -0.76732196104 0.33711172926 0.54550223657 -0.77302531949 0.32739011368 0.5433668824 
-0.7823914575 0.31098476695 0.53958510169 -0.79546127656 0.28707275159 0.53369522463 -0.81207571704 0.25467822756 0.52504478875 
-0.8317215329 0.21281738707 0.51278460533 -0.85338938873 0.16069753929 0.49588592647 -0.87548786434 0.097976153207 0.47320362721 
-0.89587214569 0.025056409357 0.44360486351 -0.91204564307 -0.056661441278 0.40615542102 -0.92153670646 -0.14470742772 0.36031910719 
-0.92235072613 -0.23576967295 0.30607482634 -0.91329765335 -0.32622128517 0.24385870803 -0.89399994935 -0.41275759862 0.17434235097 
-0.86455080348 -0.4928650693 0.098162781454 -0.82499212708 -0.56492386818 0.01578015866 -0.77487041694 -0.62795918071 -0.072409283329 
-0.7130857828 -0.68121506167 -0.16569461707 -0.63815765438 -0.72377448644 -0.26249819224 -0.54891442177 -0.75444566086 -0.35986761787 
-0.44544918285 -0.7720506786 -0.4533351687 -0.32993973509 -0.77607580292 -0.53744406158 -0.20678470902 -0.76736772829 -0.60694880648 
-0.081786875746 -0.74840180948 -0.65818359028 0.039257148234 -0.72289127052 -0.68984569819 0.15180226861 -0.69497237135 -0.70282961969 
0.25311365917 -0.66843435168 -0.69937757545 0.34213258659 -0.64630144557 -0.68208484416 0.41898343061 -0.63076497748 -0.65313737304 
0.48441881251 -0.62331016458 -0.61385898447 0.53933450783 -0.6248855787 -0.56447878808 0.58435115047 -0.63602494722 -0.50399007873 
0.61938382101 -0.65685244651 -0.43000993685 0.64307896485 -0.686882019 -0.33858903843 0.65195754772 -0.72439230404 -0.22406951111 
0.63915670346 -0.76495936961 -0.079472456033 0.59316424798 -0.798703077 0.1011413353 0.49896127047 -0.80712425232 0.31557581003 
0.34718830657 -0.76554758629 0.54166149292 0.1511931919 -0.66023591666 0.73568278019 -0.051307397142 -0.50708592924 0.86036702131 
-0.22526944393 -0.33982723165 0.91311068894 -0.35764649233 -0.1833204045 0.91568696388 -0.45119841321 -0.046540199011 0.8912092918 
-0.51322402871 0.070480320104 0.85535584456 -0.55032107825 0.17032439416 0.81739605553 -0.56734810488 0.25542504453 0.78286280695 
-0.56773397282 0.327302794 0.7553482754 -0.55391715493 0.38653889427 0.73740319276 -0.52760619913 0.43292431111 0.73089550518 
-0.48985592744 0.46557599768 0.73707541048 -0.44104050433 0.48295859999 0.75646167401 -0.38084294623 0.48286284789 0.78854430467 
-0.30840960172 0.46246071755 0.83127227927 -0.22283950056 0.41868190205 0.88036811726 -0.12413508778 0.34922541445 0.92877989313 
-0.014419177349 0.25424769799 0.96703164136 0.1013390775 0.13798701809 0.98523599925 0.21611493533 0.0087523866722 0.97632870001 
0.32311403183 -0.12354808668 0.93826072747 0.41785365189 -0.25080232301 0.8732104674 0.49846525492 -0.36852290165 0.78468035568 
0.56434903324 -0.47530125584 0.67498065518 0.61437054644 -0.570908942 0.54462079616 0.64563349888 -0.65429934046 0.39376358161 
0.65363125094 -0.72252417453 0.22522212373 0.63440815452 -0.77153686707 0.047509538272 0.58806196869 -0.79910734326 -0.12494228641 
0.52068831628 -0.80779567161 -0.27631473037 0.44233660928 -0.80486226975 -0.39564510717 0.36275337219 -0.79913674005 -0.47936464374 
0.28860829951 -0.79789864823 -0.52920978506 0.22328824732 -0.80562145139 -0.54874077274 0.16799806692 -0.82409751385 -0.54096204781 
0.12294904841 -0.85287067815 -0.50743978741 0.088181173415 -0.88942929961 -0.44848589905 0.063992965177 -0.92916927536 -0.36407328676 
0.051036577454 -0.96550198169 -0.25534523907 0.050071027406 -0.99071886413 -0.12636860557 0.061470102281 -0.99799853539 0.014844186595 
0.084760238563 -0.98391986217 0.15721770509 0.11854709936 -0.94981033165 0.28949424713 0.16091856645 -0.90078749665 0.40334489069 
0.20998251209 -0.8432853562 0.49474958578 0.26416829121 -0.78283168104 0.56337347566 0.32221073218 -0.72302160884 0.61108100708 
0.38296532244 -0.66550145087 0.64066011324 0.44520727667 -0.61044229748 0.65509593362 0.50752031668 -0.55710987408 0.65730640979 
0.56831630442 -0.5043609836 0.65010505024 0.62594073351 -0.45104966285 0.63620154022 0.67882962563 -0.39631976105 0.61815935354 
0.72566981496 -0.3397831867 0.59828981747 0.76550856386 -0.28160787596 0.57852713234 0.79781770076 -0.22251752236 0.56033281949 
0.82252230812 -0.1637190376 0.54465872743 0.83999006372 -0.10677939349 0.53199140405 0.85100398374 -0.05345012963 0.52243210401 
0.85668676892 -0.0054958417918 0.51580769253 0.8583813988 0.035444139735 0.51178617327 0.85750557687 0.067952030204 0.50996735898 
0.85538403902 0.090864294446 0.50996257293 0.85310165091 0.10323262583 0.51142995432 0.85137206586 0.10426692765 0.51409533481 
0.85042467336 0.093293495899 0.51775882277 0.84992950875 0.069723344802 0.52226285081 0.84893861518 0.033096380813 0.52745412808 
0.84585965591 -0.016799254528 0.53314090778 0.83849699193 -0.079713156101 0.53904416078 0.82419754279 -0.15463045477 0.54478237206 
0.80016860402 -0.23948130271 0.54988990788 0.76398581945 -0.33094973639 0.55389343709 0.71419385813 -0.42459030897 0.55646222022 
0.650811105 -0.51534525552 0.55755194666 0.57549054231 -0.59836218105 0.55747047993 0.49120830189 -0.66983213461 0.55681174161 
0.40162912914 -0.72749941931 0.55627208948 0.31045893842 -0.77071753843 0.55642584728 0.22103183784 -0.8001603751 0.55757358328 
0.13616998053 -0.81743369429 0.55969624962 0.058231862339 -0.82473904132 0.56250739012 -0.010785680832 -0.8246199771 0.56558426645 
-0.06919120079 -0.81976832691 0.56850019167 -0.11560296624 -0.81281740692 0.57093241036 -0.1489730376 -0.80611997953 0.57269329721 
-0.16860394989 -0.80151476971 0.57371315308 -0.16860394989 -0.80151476971 0.57371315308 
FrenetNormal 3 128 double
-0.5010810608 -0.84604729146 -0.18199382166 -0.5010810608 -0.84604729146 -0.18199382166 -0.49300154576 -0.84907639678 -0.18978605929 
-0.47905464255 -0.85414472731 -0.20234483996 -0.45824095366 -0.86123666997 -0.21974218232 -0.42943042137 -0.87002266045 -0.24217779317 
-0.39150769424 -0.87969594407 -0.26991993504 -0.34352544346 -0.88887499237 -0.30313613712 -0.28495098643 -0.8955401941 -0.34177579797 
-0.21594325944 -0.89711278496 -0.38543113492 -0.13765507342 -0.8906442808 -0.43336341083 -0.052279131147 -0.87327170035 -0.48442071572 
0.037101946067 -0.84260467916 -0.53725301326 0.12711217066 -0.79712164155 -0.59028771344 0.21492194227 -0.73644292889 -0.64145176843 
0.29901916059 -0.66149802195 -0.68775570413 0.37959644346 -0.5746012195 -0.72507929129 0.45828335954 -0.47918178427 -0.74857276199 
0.53707307454 -0.37888519998 -0.75365676394 0.61687660061 -0.27667249139 -0.73682806144 0.69643584576 -0.17470535353 -0.69602812601 
0.77224368479 -0.075124754563 -0.63086921192 0.83961131901 0.018984600419 -0.54285579848 0.89428919973 0.10338012477 -0.4353841718 
0.93380570085 0.17325116631 -0.31303505622 0.95781350873 0.22392327813 -0.18014340954 0.96714659265 0.25114099082 -0.039441996069 
0.96197955085 0.25057373589 0.10866529631 0.93936591038 0.21734925092 0.2652376096 0.8910042538 0.14711447133 0.42949825616 
0.80426955061 0.041210298117 0.59283404194 0.6717857229 -0.084913987634 0.73586245808 0.50443518396 -0.20180140453 0.83953638296 
0.32675311375 -0.28234859187 0.90194882079 0.15635876069 -0.31505274687 0.9361056055 -0.0041736393059 -0.29893042936 0.95426578014 
-0.16092489201 -0.23407137456 0.9588085162 -0.31963751466 -0.11833227722 0.94012197687 -0.47703679716 0.048212893779 0.87755991877 
-0.61371114381 0.25125967056 0.74848327297 -0.69950902089 0.45439516725 0.55155431435 -0.71803400813 0.61749989927 0.32112464491 
-0.67945349938 0.72648863895 0.10274823431 -0.60432453007 0.79298144104 -0.077280634834 -0.50674762044 0.83538486907 -0.21292949471 
-0.39178819546 0.86748180368 -0.30655722171 -0.25778584698 0.89648527353 -0.36036177855 -0.097859042722 0.92302906655 -0.3720765379 
0.10018806083 0.93821324443 -0.33123746835 0.34877714429 0.91196331303 -0.21604957604 0.62819632639 0.77802000178 -0.0073656181927 
0.83603017242 0.4905718974 0.24574939326 0.89272760684 0.14938567104 0.42511332756 0.8605579873 -0.12685528161 0.49330283603 
0.81257521084 -0.32626472717 0.48298328597 0.77343331915 -0.47379205097 0.42109618053 0.74347266527 -0.58716006228 0.32014287008 
0.71567195395 -0.67278251733 0.1875562281 0.6824532684 -0.73022508094 0.032075966389 0.6389064403 -0.75741135644 -0.13463505371 
0.58368353825 -0.75439220632 -0.30034301427 0.51726532602 -0.72447171664 -0.45560653452 0.43951290472 -0.67276443759 -0.59516083381 
0.34835962369 -0.60415383205 -0.71668941655 0.24076256721 -0.52168361996 -0.81846171987 0.11497475679 -0.42647013492 -0.89716443829 
-0.027179100908 -0.31981084898 -0.94709150421 -0.17928061663 -0.20664489819 -0.96185048035 -0.33220845495 -0.097794103075 -0.93812251645 
-0.47895563082 -0.0084650140298 -0.87779829531 -0.61933531545 0.044936397881 -0.78383958001 -0.75964913157 0.044366776543 -0.64881799146 
-0.89841931097 -0.034613213355 -0.43777239193 -0.97377071876 -0.20961904282 -0.088489796966 -0.84522730273 -0.40282569697 0.35117269907 
-0.57314232333 -0.47844945981 0.66527737945 -0.33950537528 -0.45011758401 0.82591177538 -0.17557503898 -0.36961311501 0.91244701265 
-0.056789186432 -0.25807039595 0.96445562834 0.037688244079 -0.12456292225 0.99149567556 0.12057528379 0.022188389078 0.99245618358 
0.19969565509 0.17135874822 0.96475790992 0.28061426042 0.31171207575 0.90779470073 0.3674382399 0.43397139434 0.82259222508 
0.46149468427 0.53160035072 0.71022793771 0.55888744791 0.60030415864 0.57208368067 0.64881354828 0.63871932361 0.41361649534 
0.71724174151 0.65127936093 0.24778918109 0.75476590764 0.64947403213 0.092259992717 0.76105751145 0.64752229891 -0.038811553379 
0.74164969542 0.65616855149 -0.13927871811 0.70271561703 0.67999289531 -0.2092855081 0.64854805842 0.71837960206 -0.25162703206 
0.58182397275 0.76719354896 -0.26999059828 0.50465881941 0.82055425327 -0.26834715095 0.41971461191 0.87219165537 -0.25123964826 
0.33050579825 0.91696204574 -0.22348718978 0.24096431425 0.95187076159 -0.18941555504 0.15498340757 0.9760607968 -0.1525957546 
0.075340035605 0.99055355778 -0.11457542586 0.0034272840214 0.99719194489 -0.074809616769 -0.06235329281 0.99765878744 -0.028089334513 
-0.13271188876 0.99007763364 0.046193440577 -0.28129622439 0.91656744733 0.28421215429 -0.22583281372 -0.8117178367 0.53862203244 
-0.034558384076 -0.97211936666 0.23192596892 -0.016706448736 -0.98714144242 0.15897379413 -0.038503303068 -0.99151164764 0.12418594219 
-0.083548064974 -0.99133980693 0.10131686945 -0.14686359409 -0.98569466572 0.082686823009 -0.22563426048 -0.9720099536 0.065466255362 
-0.31672782874 -0.9472841328 0.048334814003 -0.41640582287 -0.9086350086 0.031442198203 -0.52005921709 -0.85398278544 0.015868613654 
-0.62250543177 -0.78260867266 0.0032638779963 -0.71857249003 -0.69543653239 -0.0046482251907 -0.80377124142 -0.59490205711 -0.0065828500404 
-0.87470035402 -0.48465860681 -0.0023077080369 -0.92929955784 -0.36925986028 0.0070347264882 -0.96710135945 -0.25365329628 0.0193640346 
-0.98921964025 -0.1429120851 0.031947445571 -0.9982355541 -0.041550648949 0.042418416908 -0.99766308836 0.047038034357 0.049555881993 
-0.99130383801 0.1204387412 0.05302084838 -0.98261154954 0.17765778921 0.053965291163 -0.97457571678 0.21771433391 0.052939976152 
-0.96917046005 0.24089948845 0.051730608179 -0.96917046005 0.24089948845 0.051730608179 
FrenetBinormal 3 128 double
0.4001684378 -0.41298869551 0.81811096972 0.4001684378 -0.41298869551 0.81811096972 0.39922591511 -0.41459014206 0.81776138501 
0.39795760664 -0.41680362227 0.81725423448 0.39655590512 -0.41935740556 0.81662891237 0.39512345285 -0.42213690991 0.81589085441 
0.3936508822 -0.42525734061 0.8149817036 0.3920673678 -0.42904259556 0.81376017985 0.39028699022 -0.4340604038 0.81195297347 
0.38830607423 -0.44109049799 0.80910911829 0.3862949983 -0.45115656501 0.80450850097 0.38475575511 -0.46524864077 0.79718674799 
0.38456804808 -0.4841797352 0.78592455136 0.38694947015 -0.50811097378 0.76947602034 0.39315728314 -0.53598785179 0.74709060591 
0.40390524853 -0.56524719409 0.71927474568 0.41868189639 -0.59219461472 0.68848457349 0.43537592874 -0.61323085781 0.65908703196 
0.4506231008 -0.6264120409 0.63603991702 0.46067132293 -0.63214145987 0.62304021294 0.4622446001 -0.63268458513 0.62132129001 
0.45300630989 -0.63110539606 0.62967552142 0.43150041043 -0.63035381578 0.64533825451 0.39684620619 -0.6328185517 0.66487124261 
0.34830707718 -0.64021774806 0.68469220461 0.28469660834 -0.65367161214 0.70118561357 0.20392042461 -0.67375188741 0.71026393308 