# vtk DataFile Version 4.2
vtk output
ASCII
DATASET POLYDATA
POINTS 128 float
0 0 0 -0.3224 -0.108079 0.0354448 -0.948914 -0.312394 0.105066 
-1.47146 -0.469761 0.165104 -1.91297 -0.590625 0.219139 -2.38294 -0.716491 0.280302 
-2.87548 -0.848578 0.349218 -3.35956 -0.979465 0.423791 -3.83478 -1.11304 0.505282 
-4.30789 -1.25567 0.595632 -4.77734 -1.41006 0.695397 -5.23959 -1.57763 0.804627 
-5.69376 -1.75907 0.922934 -6.13989 -1.95449 1.04968 -6.57847 -2.16218 1.18366 
-7.01029 -2.37978 1.32343 -7.43692 -2.60459 1.46754 -7.86017 -2.8339 1.6145 
-8.28179 -3.06521 1.76297 -8.70345 -3.29628 1.91161 -9.12659 -3.52556 2.05895 
-9.55247 -3.75194 2.20318 -9.98177 -3.97555 2.34095 -10.415 -4.19718 2.46812 
-10.8532 -4.41899 2.5793 -11.2964 -4.64446 2.66576 -11.7394 -4.88207 2.69852 
-12.1721 -5.14046 2.64258 -12.5688 -5.41263 2.48465 -12.9012 -5.68534 2.22514 
-13.1767 -5.95228 1.89433 -13.4188 -6.21097 1.53387 -13.6418 -6.46317 1.16075 
-13.8546 -6.71256 0.779456 -14.0599 -6.96129 0.39282 -14.2576 -7.2107 0.00267952 
-14.4458 -7.46232 -0.390448 -14.6219 -7.71782 -0.786753 -14.7819 -7.97877 -1.18636 
-14.9211 -8.24673 -1.58929 -15.0331 -8.52314 -1.99498 -15.1106 -8.80927 -2.40236 
-15.1455 -9.10515 -2.80863 -15.1295 -9.40993 -3.20979 -15.0579 -9.72084 -3.6002 
-14.929 -10.034 -3.97339 -14.7466 -10.3462 -4.32482 -14.5184 -10.6547 -4.65144 
-14.2523 -10.9586 -4.95241 -13.9562 -11.2584 -5.22835 -13.6366 -11.5551 -5.48009 
-13.2985 -11.8502 -5.7085 -12.9459 -12.145 -5.91391 -12.5817 -12.441 -6.09619 
-12.2084 -12.7393 -6.25451 -11.8277 -13.0412 -6.38733 -11.4413 -13.3471 -6.49104 
-11.0507 -13.6569 -6.56021 -10.6574 -13.9701 -6.58879 -10.2633 -14.2854 -6.56929 
-9.87504 -14.594 -6.47625 -9.50459 -14.8797 -6.26945 -9.1877 -15.1085 -5.93832 
-8.9803 -15.2312 -5.50162 -8.89336 -15.2446 -4.99934 -8.89345 -15.19 -4.48969 
-8.95358 -15.0989 -3.99872 -9.05546 -14.9911 -3.51898 -9.18757 -14.8811 -3.04557 
-9.34524 -14.7793 -2.5779 -9.52502 -14.6951 -2.11521 -9.72446 -14.6378 -1.65639 
-9.94113 -14.6157 -1.2021 -10.1725 -14.6365 -0.755028 -10.4154 -14.7048 -0.318714 
-10.6658 -14.8218 0.102514 -10.9201 -14.9853 0.505654 -11.1749 -15.1892 0.889479 
-11.4281 -15.4266 1.25433 -11.6784 -15.6906 1.60245 -11.9249 -15.9754 1.93648 
-12.1667 -16.2765 2.25945 -12.4027 -16.5905 2.57421 -12.6316 -16.9151 2.88333 
-12.8515 -17.249 3.18911 -13.0597 -17.5917 3.49342 -13.2529 -17.943 3.79784 
-13.4271 -18.3031 4.10346 -13.5776 -18.6724 4.41097 -13.6986 -19.0508 4.72041 
-13.7843 -19.4377 5.03128 -13.8286 -19.8316 5.34227 -13.8261 -20.2294 5.65157 
-13.7731 -20.6269 5.95674 -13.6681 -21.019 6.25554 -13.5128 -21.4002 6.54624 
-13.3107 -21.766 6.82766 -13.0668 -22.113 7.09965 -12.7868 -22.439 7.36246 
-12.4762 -22.743 7.61696 -12.14 -23.0248 7.86413 -11.7827 -23.2852 8.10515 
-11.4082 -23.525 8.34118 -11.0196 -23.7453 8.57336 -10.6196 -23.9473 8.80274 
-10.2103 -24.132 9.03024 -9.79343 -24.3005 9.25663 -9.37023 -24.453 9.48249 
-8.94165 -24.5899 9.70826 -8.50837 -24.7107 9.93421 -8.07101 -24.8151 10.1605 
-7.63016 -24.9026 10.3872 -7.18644 -24.9729 10.6142 -6.74057 -25.026 10.8418 
-6.29335 -25.0624 11.07 -5.84582 -25.0837 11.2993 -5.39886 -25.092 11.5301 
-4.95272 -25.0904 11.7637 -4.50806 -25.082 12.001 -4.0673 -25.0701 12.2416 
-3.6311 -25.0586 12.4866 -3.19338 -25.0528 12.7421 -2.75403 -25.0569 13.0096 
-2.3385 -25.0677 13.2702 -1.95181 -25.0879 13.5215 -1.50467 -25.1445 13.8347 
-0.97899 -25.2454 14.2252 -0.710413 -25.3035 14.4288 
LINES 1 129
128 0 1 2 3 4 5 6 7 8 9 10 11 12 13 14 15 16 17 18 19 20 21 22 23 24 25 26 27 28 29 30 31 32 33 34 35 36 37 38 39 40 41 42 43 44 45 46 47 48 49 50 51 52 53 54 55 56 57 58 59 60 61 62 63 64 65 66 67 68 69 70 71 72 73 74 75 76 77 78 79 80 81 82 83 84 85 86 87 88 89 90 91 92 93 94 95 96 97 98 99 100 101 102 103 104 105 106 107 108 109 110 111 112 113 114 115 116 117 118 119 120 121 122 123 124 125 126 127 

CELL_DATA 1
FIELD FieldData 2
Length 1 1 double
60.060589904 
Tortuosity 1 1 double
1.0613202185 
POINT_DATA 128
SCALARS MaximumInscribedSphereRadius float
LOOKUP_TABLE default
1.116 1.14795 1.1799 1.21379 1.24771 1.30214 1.35725 1.42699 1.49746 
1.51856 1.53629 1.49568 1.45003 1.3982 1.34571 1.2845 1.22219 1.17221 
1.12404 1.11666 1.11609 1.11821 1.12083 1.21136 1.32054 1.40498 1.4836 
1.40823 1.29269 1.25662 1.24328 1.24006 1.24001 1.24 1.24 1.2545 
1.27438 1.32911 1.3978 1.45969 1.51864 1.48865 1.41722 1.34461 1.27141 
1.28948 1.3566 1.42411 1.49183 1.55233 1.60838 1.66162 1.71302 1.74825 
1.77209 1.75273 1.7009 1.64583 1.58815 1.59901 1.6685 1.72959 1.78304 
1.75745 1.65573 1.53653 1.39933 1.25873 1.11442 1.09001 1.20566 1.37996 
1.62728 1.80371 1.88598 1.91724 1.87621 1.83355 1.78843 1.74169 1.69232 
1.65099 1.62357 1.62817 1.69227 1.75705 1.82319 1.90716 2.02939 2.15517 
2.28913 2.36937 2.3157 2.23692 2.09038 1.96585 1.90576 1.86 1.86 
1.86 1.86 1.85997 1.85982 1.85763 1.84677 1.82591 1.7579 1.6898 
1.62118 1.55672 1.51718 1.47793 1.44067 1.3979 1.31113 1.22271 1.11851 
1.01895 0.97301 0.929995 0.929923 0.928799 0.90665 0.883069 0.816387 0.749733 
0.684866 0.62 
TEXTURE_COORDINATES TCoords 2 float
0 0 0.00787402 0 0.015748 0 0.023622 0 0.0314961 
0 0.0393701 0 0.0472441 0 0.0551181 0 0.0629921 0 
0.0708661 0 0.0787402 0 0.0866142 0 0.0944882 0 0.102362 
0 0.110236 0 0.11811 0 0.125984 0 0.133858 0 
0.141732 0 0.149606 0 0.15748 0 0.165354 0 0.173228 
0 0.181102 0 0.188976 0 0.19685 0 0.204724 0 
0.212598 0 0.220472 0 0.228346 0 0.23622 0 0.244094 
0 0.251969 0 0.259843 0 0.267717 0 0.275591 0 
0.283465 0 0.291339 0 0.299213 0 0.307087 0 0.314961 
0 0.322835 0 0.330709 0 0.338583 0 0.346457 0 
0.354331 0 0.362205 0 0.370079 0 0.377953 0 0.385827 
0 0.393701 0 0.401575 0 0.409449 0 0.417323 0 
0.425197 0 0.433071 0 0.440945 0 0.448819 0 0.456693 
0 0.464567 0 0.472441 0 0.480315 0 0.488189 0 
0.496063 0 0.503937 0 0.511811 0 0.519685 0 0.527559 
0 0.535433 0 0.543307 0 0.551181 0 0.559055 0 
0.566929 0 0.574803 0 0.582677 0 0.590551 0 0.598425 
0 0.606299 0 0.614173 0 0.622047 0 0.629921 0 
0.637795 0 0.645669 0 0.653543 0 0.661417 0 0.669291 
0 0.677165 0 0.685039 0 0.692913 0 0.700787 0 
0.708661 0 0.716535 0 0.724409 0 0.732283 0 0.740157 
0 0.748031 0 0.755906 0 0.76378 0 0.771654 0 
0.779528 0 0.787402 0 0.795276 0 0.80315 0 0.811024 
0 0.818898 0 0.826772 0 0.834646 0 0.84252 0 
0.850394 0 0.858268 0 0.866142 0 0.874016 0 0.88189 
0 0.889764 0 0.897638 0 0.905512 0 0.913386 0 
0.92126 0 0.929134 0 0.937008 0 0.944882 0 0.952756 
0 0.96063 0 0.968504 0 0.976378 0 0.984252 0 
0.992126 0 1 0 
FIELD FieldData 7
Curvature 1 128 double
0 0.004384564412 0.0083617827103 0.012434483309 0.016681625099 0.021135089405 0.025711084909 0.030186070165 0.03422047645 
0.037424709088 0.039420586242 0.039923004222 0.038782163789 0.036030591781 0.031955446758 0.027288854863 0.023785051143 0.024654899172 
0.032167110562 0.045486869202 0.063351654938 0.085134825181 0.11036690188 0.13816145677 0.16678506097 0.19340736077 0.21434736926 
0.22602489395 0.22641455451 0.21608283941 0.19795870036 0.17613778239 0.15445433488 0.13585124589 0.12214185166 0.11420106344 
0.11214302192 0.1153708312 0.12287998826 0.13334375256 0.14536412267 0.15743137075 0.16808290672 0.17604993143 0.18040349268 
0.18083699811 0.17769730505 0.17195016355 0.1649588366 0.15827851873 0.15349842728 0.15207269509 0.15537200771 0.16465724144 
0.18129929807 0.20694378723 0.24356580492 0.29323133347 0.35675044894 0.43079968659 0.50374424719 0.55451401201 0.56148536531 
0.5191120192 0.44319298265 0.35763758511 0.27986843173 0.21767589988 0.17282189045 0.14463316453 0.13097143954 0.12792353602 
0.13064060642 0.13477898058 0.13747849511 0.13721521784 0.13354341132 0.12689150911 0.11814314002 0.10854154331 0.099306528981 
0.091669430476 0.086790695126 0.085397738489 0.087877909121 0.093944545005 0.10292752811 0.11401348357 0.12627819214 0.13878290313 
0.15062929556 0.16087831628 0.16866403048 0.17334619527 0.17459230942 0.17239116711 0.16712123236 0.15937297344 0.14992669514 
0.13954469558 0.12889125388 0.11852393081 0.10887428899 0.10014447046 0.092523941444 0.085940941822 0.080335974183 0.075495961905 
0.071210499152 0.067156215257 0.06305267182 0.058624521303 0.053701116557 0.048115143435 0.041956305584 0.035391379075 0.028949230257 
0.023466705383 0.020163287028 0.019746430723 0.021361132558 0.023185652797 0.023829497382 0.022536658389 0.019087816082 0.013629735054 
0.006738688606 0 
Torsion 1 128 double
0 0 -0.14785207692 -0.17780292349 -0.18978822298 -0.18466205851 -0.16803899635 -0.14642016401 -0.12528678108 
-0.10821159961 -0.09801770851 -0.098382166175 -0.11586371467 -0.16380747617 -0.27022845306 -0.48524058148 -0.80992170942 -0.90260693345 
-0.58970289483 -0.299785927 -0.13948649926 -0.057618177209 -0.015599366822 0.0059690955423 0.017005462508 0.023062430742 0.027273895434 
0.031756655216 0.038408653687 0.048945931706 0.065367246613 0.089488453199 0.12202488802 0.16022031311 0.19506110202 0.21323195831 
0.20538386707 0.17582408801 0.13766698389 0.10274699349 0.076874213072 0.060602429871 0.052282106867 0.050544764693 0.054365913084 
0.062730838016 0.075399381922 0.091959518897 0.11130229339 0.13145469281 0.14861177333 0.15801201133 0.1555763824 0.14129044183 
0.11845660579 0.09311971721 0.070794828426 0.054498961917 0.04573281231 0.044343044121 0.049629183206 0.061510002333 0.080546074498 
0.10882337727 0.149745217 0.20714136364 0.28541368442 0.38614162033 0.49659149185 0.57457091825 0.56831324247 0.48133709714 
0.37001189336 0.2763399789 0.21060880791 0.16973970028 0.14941437749 0.14624015072 0.15886684193 0.18676026885 0.22742236091 
0.27414760178 0.31200245845 0.32371953479 0.30166584845 0.25632376886 0.20422226967 0.15760570894 0.12179242271 0.096303383132 
0.079120523697 0.068732442355 0.063069295202 0.060846868521 0.061240687782 0.063288575474 0.066805814424 0.071313240715 0.076692358983 
0.082676530266 0.088798029251 0.09503954785 0.10042326874 0.10501711956 0.10772935894 0.10828232089 0.10681579284 0.10367603152 
0.1004887378 0.098307648985 0.099518178403 0.10619875618 0.12119566742 0.14956352662 0.19905438416 0.28401024723 0.42529969477 
0.63169444956 0.79986512446 0.73698440867 0.51951232611 0.33249729618 0.21187603134 0.1378762686 0.088376792771 0.053765045655 
0 0 
Abscissas 1 128 double
0 0.50329949228 1.0065989846 1.5098969972 2.0131949871 2.516495416 3.0197959262 3.5230976515 4.0263994376 
4.5296981337 5.0329966196 5.5362941856 6.0395916722 6.5428912079 7.0461909599 7.5494902683 8.0527895212 8.556088612 
9.0593876792 9.5626873918 10.065987212 10.569281762 11.072575315 11.575880203 12.079187495 12.582476781 13.08576182 
13.589084242 14.092416416 14.595717981 15.099010786 15.602306181 16.105602386 16.608896064 17.112188882 17.615493476 
18.118802428 18.622100327 19.125393799 19.628690263 20.13198802 20.635287201 21.138587046 21.641888594 22.145190996 
22.648478556 23.151758136 23.655069662 24.158399597 24.661687254 25.164948846 25.668246317 26.171567454 26.674879938 
27.178186327 27.681478826 28.184760884 28.688049206 29.191342553 29.694648991 30.197966626 30.701268783 31.204556839 
31.707852336 32.211155003 32.714454337 33.217750235 33.721045137 34.224338947 34.72763983 35.230948974 35.734251539 
36.237545911 36.74084669 37.244155981 37.747453716 38.250735068 38.75402533 39.257329086 39.760633894 40.263940403 
40.767244731 41.270545277 41.773846445 42.277148767 42.780447579 43.283739399 43.78703891 44.290354908 44.793663222 
45.296953801 45.800248852 46.303555052 46.806858199 47.31015311 47.81344918 48.316748645 48.820044988 49.323331372 
49.826622296 50.329929068 50.833235083 51.336538191 51.839842332 52.343150849 52.846458351 53.349761068 53.853062212 
54.356355045 54.859648728 55.362947501 55.866246852 56.369550161 56.872854265 57.376164702 57.879472017 58.382749775 
58.886030523 59.38934588 59.892659748 60.395951728 60.899244276 61.402548187 61.905851593 62.409139808 62.912428206 
63.4157283 63.919028395 
ParallelTransportNormals 3 128 double
0.11006631203 0 0.99392424608 0.1135393506 0.0010712632357 0.99352609273 0.11701238917 0.0021425264715 0.99312793937 
0.1246563541 0.0042692202548 0.99215750979 0.1323646962 0.006412204335 0.99117824726 0.14475667069 0.009786189807 0.98933043889 
0.15730450417 0.013201139775 0.98745372759 0.1739984635 0.018137054686 0.98441405452 0.19089949175 0.023148930769 0.98131629993 
0.20939983076 0.029568471957 0.97717272013 0.22800894019 0.036083749576 0.97295801291 0.24469928299 0.043005709742 0.96846686386 
0.26122386915 0.049962802023 0.96395183382 0.27310606686 0.055657917779 0.96028163339 0.28449833483 0.061219852124 0.95670059118 
0.29059586272 0.064407845105 0.95465401069 0.29602989199 0.067298352883 0.95279971786 0.29657349102 0.067585577677 0.95261551184 
0.29640392671 0.06749317003 0.95267485182 0.29009330812 0.064122309653 0.9548085581 0.28275648357 0.06020360072 0.95728890307 
0.26381929513 0.050408162629 0.96294389277 0.24268760658 0.039500993659 0.96919944623 0.19043764566 0.012418478464 0.97935865809 
0.13158531511 -0.018095962935 0.99034610986 0.0017884504347 -0.094029625694 0.98115550344 -0.14473798215 -0.18067368294 0.96720667006 
-0.28566228245 -0.28361506875 0.8947013173 -0.42512519151 -0.39080783097 0.80692071222 -0.488758479 -0.44742925759 0.74472822193 
-0.5306940987 -0.48958034904 0.68985744052 -0.5486172718 -0.50878825682 0.66302312622 -0.55903255873 -0.52082260108 0.64495487423 
-0.56541982375 -0.52858946516 0.6330408764 -0.57043432677 -0.53490195914 0.62322426692 -0.57553646106 -0.54202792627 0.6121787712 
-0.58067102218 -0.54945490873 0.60067854184 -0.58653619944 -0.55997893644 0.58475988724 -0.59269398875 -0.57174333199 0.5670716516 
-0.59827209777 -0.58863514727 0.5427099565 -0.60359951951 -0.60774435531 0.51546227167 -0.60462970051 -0.63279605761 0.48172330102 
-0.60365790354 -0.66061622073 0.44496020116 -0.59559656849 -0.69018741163 0.40835172055 -0.5839841616 -0.72063567315 0.37182068704 
-0.56936811081 -0.74624761442 0.3430652353 -0.55313738604 -0.76925968674 0.31848971633 -0.53965622993 -0.78553856355 0.3022009228 
-0.52775957066 -0.79793729464 0.29068752932 -0.52064336669 -0.80495315991 0.28451160589 -0.51647428426 -0.80865052122 0.28162620019 
-0.51696035849 -0.80836280478 0.28156840832 -0.52051689923 -0.80544659512 0.28337566507 -0.52834648386 -0.79917650107 0.28634571848 
-0.53918574933 -0.79054412809 0.29013477748 -0.55427054963 -0.77855328585 0.29356651939 -0.5725468971 -0.76403774096 0.29672965101 
-0.59629052443 -0.74517298809 0.29682273472 -0.6244202678 -0.72281909048 0.2944528777 -0.65987503798 -0.6954211011 0.27975204655 
-0.70159488381 -0.66370891367 0.25450456654 -0.73693845244 -0.63927464224 0.21091708667 -0.76647289839 -0.62147093368 0.15062090586 
-0.78183036308 -0.61456552033 0.095198496706 -0.78352813213 -0.61816074831 0.044472026434 -0.78018060946 -0.62433898602 -0.0025461074434 
-0.77163347685 -0.63317923888 -0.045742479598 -0.75916948835 -0.64267054535 -0.092242648593 -0.74241685347 -0.65287470385 -0.14236021296 
-0.7206828863 -0.66158491983 -0.19863215539 -0.69313067659 -0.668550197 -0.26209246873 -0.66079845456 -0.67042662662 -0.33018056084 
-0.62251489686 -0.66596720646 -0.40403045084 -0.5828932053 -0.65487544535 -0.47606114672 -0.54149408034 -0.63497399437 -0.5456754204 
-0.50333192527 -0.61216436845 -0.60744070527 -0.46975820118 -0.58523238106 -0.65807998507 -0.44090137395 -0.55989709013 -0.70063460068 
-0.41918965542 -0.53698045922 -0.73094264692 -0.40132224315 -0.51724797366 -0.75566180921 -0.38968069405 -0.5026722191 -0.77132976061 
-0.38068683712 -0.49111345367 -0.78347128798 -0.37628196178 -0.48478373553 -0.78950081521 -0.37360264735 -0.4809798701 -0.79314465547 
-0.37412839324 -0.48186752863 -0.79235731593 -0.3756465651 -0.48498786339 -0.78969252918 -0.37914300006 -0.49255872758 -0.78328531258 
-0.38287953462 -0.50235719042 -0.77513862729 -0.3871306874 -0.51693018351 -0.76326364657 -0.39063451478 -0.53379779602 -0.74970031262 
-0.39241344603 -0.55596160239 -0.73224010329 -0.39230961127 -0.58004606443 -0.71342233374 -0.3875134447 -0.60891728895 -0.6912211788 
-0.38025997107 -0.63852959829 -0.66846214799 -0.3663786534 -0.67014076019 -0.64419841541 -0.35052916538 -0.70118809706 -0.620180897 
-0.32891586382 -0.73058426469 -0.59688442015 -0.3063371432 -0.75875440851 -0.57423025941 -0.2806783116 -0.7830129977 -0.55362536924 
-0.25482634331 -0.80604658485 -0.53367237971 -0.2283001628 -0.82480386702 -0.51599508102 -0.20197693026 -0.84259150631 -0.49883944084 
-0.17643215015 -0.856659863 -0.48368473878 -0.15110901919 -0.87008006242 -0.46884584799 -0.12672532193 -0.88075312402 -0.4553454859 
-0.10231984717 -0.89104535734 -0.44192440324 -0.077811725387 -0.8995425777 -0.42887699977 -0.053051241655 -0.90778435179 -0.41574439493 
-0.026957236003 -0.91467630594 -0.40216157199 -0.00061430763108 -0.92131219979 -0.38847640493 0.027218025211 -0.92641598223 -0.37417887191 
0.054990186753 -0.93123787943 -0.35992098458 0.082349794239 -0.93412707952 -0.3459349209 0.10917646389 -0.93679202731 -0.33221110464 
0.13175165492 -0.93766801625 -0.32057935088 0.1534906357 -0.93845194903 -0.30936014328 0.16731268608 -0.93836432803 -0.30204677063 
0.18027400137 -0.93827857861 -0.29518262695 0.18327135662 -0.93821449485 -0.29351880518 0.18557675858 -0.93815552559 -0.29225858018 
0.17771718851 -0.93817168982 -0.29692729562 0.16938997326 -0.93814242998 -0.30191757259 0.15171134101 -0.93720483299 -0.31333805806 
0.13379176743 -0.93618088059 -0.32496679159 0.10861814636 -0.93255701612 -0.34286527303 0.083832288897 -0.92898897209 -0.36048805399 
0.083832288897 -0.92898897209 -0.36048805399 0.083832288897 -0.92898897209 -0.36048805399 
FrenetTangent 3 128 double
-0.94971508181 -0.28626611458 0.12685809013 -0.94971508181 -0.28626611458 0.12685809013 -0.94911473764 -0.28687291415 0.12994285634 
-0.94802864701 -0.28818364323 0.13487724873 -0.94632194001 -0.29057535401 0.14156535418 -0.94384603977 -0.29443976105 0.14986620806 
-0.94046315423 -0.30010185778 0.15958674909 -0.93607046583 -0.30775031154 0.17047530249 -0.9306232712 -0.31739060966 0.18221835254 
-0.92415539944 -0.32883050331 0.1944409879 -0.91679534439 -0.34169682154 0.20671134138 -0.90877331589 -0.35548217924 0.21854857715 
-0.90041448691 -0.36961615097 0.22942897093 -0.89211783475 -0.38354607182 0.2387847979 -0.88432027284 -0.39681733159 0.24599524467 
-0.8774519613 -0.40913974657 0.25036518007 -0.87188592553 -0.42043391006 0.2510981086 -0.86788741958 -0.43084810561 0.24726774319 
-0.86556378175 -0.44074070628 0.23779606716 -0.86480839338 -0.45062707723 0.22145356174 -0.86523601768 -0.46108872037 0.19688531094 
-0.86610348577 -0.47264923778 0.16268819858 -0.86622781905 -0.48562197568 0.11756131269 -0.86393239108 -0.49995275666 0.060564550306 
-0.85709404167 -0.51508995823 -0.0084934481957 -0.8433882475 -0.52995127322 -0.088588441666 -0.82079037025 -0.54308109086 -0.17710476237 
-0.78825598478 -0.55302422961 -0.26984570393 -0.7462704451 -0.558821723 -0.36166103561 -0.69687308125 -0.56039257645 -0.44758023737 
-0.643047611 -0.55856337993 -0.52392434624 -0.58778188469 -0.55475959764 -0.58885842514 -0.5332901109 -0.55056243533 -0.6422481315 
-0.48065552031 -0.54736085817 -0.68510317599 -0.42986594021 -0.5461761011 -0.71896240516 -0.38008437532 -0.54762469709 -0.74541468913 
-0.32996615536 -0.55195528522 -0.76581179113 -0.27796969309 -0.55909451021 -0.7811185431 -0.22261921905 -0.56869505667 -0.79185012208 
-0.16273539389 -0.58016623537 -0.79807539175 -0.097634329099 -0.59270907736 -0.79947700867 -0.027281463751 -0.60538491797 -0.7954651613 
0.047617545412 -0.61721096057 -0.78535546061 0.12565215743 -0.62728707998 -0.76858470881 0.20485532201 -0.63494811201 -0.744899451 
0.28298136402 -0.639889965 -0.71446650048 0.35785811742 -0.64221087417 -0.67786632966 0.42769862805 -0.6423735875 -0.63594815642 
0.49129787595 -0.64108489361 -0.58960712027 0.54807873828 -0.63913256827 -0.53955468382 0.59801269764 -0.6372335908 -0.48612155293 
0.64145320444 -0.63590602787 -0.4291401988 0.67893626718 -0.63537761549 -0.36788698108 0.71097015124 -0.63551240797 -0.30107378391 
0.73780021535 -0.63575402386 -0.22686485707 0.75915382112 -0.63502530424 -0.14292773999 0.77390360966 -0.63158811597 -0.046579552577 
0.77964138462 -0.62285913117 0.064852248229 0.77225161224 -0.60523092054 0.19319156352 0.7457870327 -0.57420709301 0.33776902789 
0.69345481314 -0.52538515372 0.49304245495 0.61061489469 -0.45680817517 0.64689700995 0.4990820098 -0.37191018007 0.7826876551 
0.36894604024 -0.28012278364 0.88623362917 0.23463391243 -0.1932762496 0.95267582024 0.10833137238 -0.12068988795 0.98676150346 
-0.0034400065011 -0.067044059326 0.99774408566 -0.099108820086 -0.033284257728 0.9945197836 -0.17981579214 -0.018382072712 0.98352853558 
-0.24760537323 -0.020558547045 0.96864282648 -0.30445481641 -0.037823791163 0.95177551218 -0.35188981342 -0.068084250361 0.93356204618 
-0.3909402936 -0.10907061537 0.91393067992 -0.42224040406 -0.15827537582 0.89255921181 -0.44619421618 -0.21299212765 0.86922095868 
-0.46314917412 -0.27047739137 0.84399930288 -0.4735086219 -0.32817371855 0.81736870227 -0.47775849946 -0.38395783026 0.79014125368 
-0.47643460938 -0.43629800272 0.76331783407 -0.47003845171 -0.48430363419 0.73791181304 -0.45894381005 -0.52766130721 0.71480355629 
-0.44334358819 -0.56648748129 0.69464983722 -0.42320984419 -0.60119066957 0.67783715345 -0.3983147219 -0.63229779122 0.66448843897 
-0.36827148687 -0.66032422535 0.65448302451 -0.33259269451 -0.68567185717 0.64748452016 -0.29078030501 -0.70853008223 0.64298673143 
-0.24241457783 -0.72883843656 0.64033561969 -0.18726483817 -0.74626428107 0.63876560896 -0.12540824505 -0.76021071701 0.63745779297 
-0.057318240472 -0.76989567859 0.63559048404 0.016072646131 -0.77447035953 0.6324059869 0.093357396101 -0.77315619686 0.62730685621 
0.17273872838 -0.76541087542 0.6199254177 0.25219926269 -0.75105519373 0.61017344081 0.32971092027 -0.73033100822 0.59825356454 
0.40345652249 -0.70388691791 0.58460759596 0.47200134038 -0.67267530613 0.56984442368 0.53438661021 -0.63781595227 0.55463660342 
0.59013701046 -0.60044532931 0.53963294507 0.6391904625 -0.5616053471 0.52539031849 0.68180148214 -0.52217093236 0.51233217384 
0.71844154057 -0.4828034119 0.50074206759 0.74969503541 -0.4439674221 0.49076499671 0.77618278457 -0.40594434527 0.48244116065 
0.79850796275 -0.36888209211 0.47572159458 0.81721405629 -0.3328509101 0.47050128357 0.83277192917 -0.29788243472 0.46664437109 
0.8455722577 -0.26401981157 0.46400549147 0.85592483274 -0.23135683843 0.4624572348 0.86407224347 -0.20007525896 0.46189722754 
0.87020542732 -0.17045030904 0.46226529873 0.8744845729 -0.14284247796 0.46354369617 0.87705379296 -0.11769018599 0.4657527932 
0.87805404389 -0.095467855534 0.46894241071 0.87763044504 -0.076637179883 0.47317179185 0.87593447354 -0.061594236872 0.4784819203 
0.87312195591 -0.050605426882 0.48486816856 0.86935061201 -0.043760689766 0.49225452302 0.86479135537 -0.040919581288 0.50046128677 
0.85963527026 -0.041678732847 0.50920534694 0.85411123939 -0.045372900137 0.5181074123 0.84850543133 -0.051104561825 0.52671325858 
0.84316504883 -0.057819086897 0.534536859 0.83848135562 -0.064419169113 0.54110921903 0.8348472732 -0.069872077034 0.546029233 
0.83259774718 -0.073356147324 0.54899896816 0.83259774718 -0.073356147324 0.54899896816 
FrenetNormal 3 128 double
0.17659611423 -0.15514422465 0.97197946583 0.17659611423 -0.15514422465 0.97197946583 0.19393965685 -0.20731976373 0.95885657169 
0.21811984433 -0.27998680649 0.93489631602 0.24564560632 -0.36187912177 0.89927845372 0.27358714214 -0.44225261555 0.85414442555 
0.30025983897 -0.51349241899 0.80384672964 0.32523915309 -0.57223952064 0.75283558916 0.34879428148 -0.61840094888 0.70421787511 
0.37137246358 -0.65401100422 0.6590539429 0.39321045581 -0.68188517896 0.61678046351 0.41426015772 -0.70554746696 0.57497068934 
0.43412646986 -0.72939337964 0.52869604302 0.45179946452 -0.75936477289 0.46823325978 0.46427029561 -0.80305008434 0.37358219264 
0.4607183499 -0.86412679497 0.2025425493 0.40604285853 -0.90729849586 -0.10926406751 0.2575962185 -0.81593810822 -0.51758013077 
0.093690460723 -0.60896203772 -0.78764670645 0.0027497275371 -0.44529682989 -0.89537878704 -0.026546242037 -0.35001564891 -0.93636763216 
-0.018347905004 -0.29518503388 -0.95526391649 0.01401392467 -0.25880858668 -0.96582696451 0.064087037664 -0.22842613658 -0.97144961358 
0.12812342867 -0.19716656971 -0.97196179494 0.20314523268 -0.16186875379 -0.96567619883 0.28579230573 -0.1219667021 -0.95049822807 
0.37195923278 -0.078877252835 -0.92489172779 0.45731281074 -0.035628464122 -0.88859192303 0.5383048435 0.0036841569843 -0.8427421447 
0.61296644701 0.034715714131 -0.78934590265 0.68135272924 0.052995895973 -0.73003417274 0.74467249423 0.054652660079 -0.66518866728 
0.80408605419 0.036614098193 -0.59338438239 0.8585966319 -0.00092407407699 -0.5126509239 0.90474670686 -0.052590918217 -0.42269089386 
0.93883537038 -0.10719336043 -0.32725789646 0.96052770504 -0.15252776933 -0.23264094099 0.97294563191 -0.18107638709 -0.1434856766 
0.97965461003 -0.19129099441 -0.060700910288 0.98249023528 -0.18548750327 0.01753065042 0.98139915438 -0.16749553015 0.093813363494 
0.97534144394 -0.14090075773 0.16987066903 0.96300731624 -0.10903806703 0.24642972389 0.94324637937 -0.075167366296 0.32347509153 
0.91531842566 -0.042384964393 0.40049431261 0.87895040907 -0.013416007464 0.47672443731 0.83395459369 0.0090147582382 0.55175943109 
0.78023351931 0.023063217564 0.6250629915 0.71747338016 0.027666021938 0.69603630652 0.64554207891 0.023468069547 0.76336405081 
0.5649968025 0.013183706467 0.82498775933 0.47771521411 0.0018016418977 0.8785129073 0.38654852937 -0.0044740346382 0.92225821626 
0.29372109293 -0.00023691596743 0.95589113577 0.19994157272 0.018534298904 0.97963250623 0.10317410286 0.05317085903 0.99324114104 
2.833227575e-05 0.10359549573 0.9946195114 -0.11305228692 0.16832206294 0.97922768729 -0.23779582148 0.24416360562 0.94012620481 
-0.37171804174 0.32532250063 0.86947741088 -0.50670334471 0.40240587722 0.76244424743 -0.63074322625 0.46343689012 0.62240600207 
-0.73349370661 0.49786694481 0.46272614755 -0.81238021911 0.49921940316 0.30136085861 -0.87247051297 0.464240445 0.15256478368 
-0.9211436707 0.38854655796 0.022932732548 -0.96071925078 0.26355926123 -0.086919715853 -0.98082133378 0.079788104142 -0.17782960842 
-0.95610802899 -0.15649570038 -0.24772269306 -0.8660799947 -0.40494118428 -0.29313491784 -0.72575004252 -0.61002667181 -0.31804769369 
-0.57326880204 -0.74798525794 -0.33448607522 -0.43375102532 -0.82932282535 -0.35225516233 -0.3130524547 -0.8727573272 -0.37455681601 
-0.20788618824 -0.89257238115 -0.40012232772 -0.11292620902 -0.89771763 -0.42585294187 -0.022272327086 -0.89384679042 -0.44781900217 
0.069164724476 -0.88409441548 -0.46216155769 0.16713942091 -0.869734505 -0.46435579547 0.27611783514 -0.84940679171 -0.44974108475 
0.39790181789 -0.81881132759 -0.41378998673 0.52792073326 -0.77164192495 -0.35477942311 0.65389340517 -0.70377355599 -0.27771603584 
0.7612511397 -0.61829603972 -0.19546536667 0.84252826203 -0.52450155404 -0.12265499375 0.89959265585 -0.43132911045 -0.068470811435 
0.93856752173 -0.34327491572 -0.035402533666 0.96529751328 -0.26029799745 -0.021110740984 0.98334981363 -0.1804214324 -0.021708311111 
0.99423872312 -0.10177834135 -0.033623365198 0.99829937743 -0.023016771061 -0.053559138096 0.99531448536 0.056545878644 -0.078432383907 
0.98496142764 0.13647574789 -0.10594978197 0.96716296205 0.21615581146 -0.13368795759 0.94220931298 0.29444760714 -0.1598193267 
0.9107757797 0.37025104989 -0.18276115333 0.87379729398 0.44275463006 -0.20111346694 0.8323685038 0.51118628578 -0.2141290618 
0.78747176663 0.57539075252 -0.22093822364 0.74003990885 0.63503235747 -0.22152841415 0.69070885689 0.69020748856 -0.21571948859 
0.63997097055 0.7408563177 -0.20388495135 0.58823902209 0.78681431672 -0.18681028851 0.53567263581 0.82815095691 -0.16498733231 
0.48286705029 0.86439137899 -0.14023892353 0.43002300898 0.89568478869 -0.11326504784 0.37786455052 0.92187123162 -0.085859267179 
0.32653344927 0.94338820469 -0.058263211032 0.2762758638 0.96058543671 -0.030777684438 0.22687605975 0.97392028814 -0.0025545771018 
0.17756738536 0.98369732426 0.028449919344 0.12719673356 0.98974322726 0.065033338074 0.073451077033 0.99097927553 0.11209377658 
0.012731173187 0.98421305686 0.17652924951 -0.061315586745 0.96107783141 0.269387826 -0.15743344463 0.90102300411 0.4041933406 
-0.28274227266 0.75766173402 0.58822232536 -0.41615616321 0.47239795597 0.7769518769 -0.49554187905 0.091388412871 0.86376293281 
-0.50453786257 -0.22615065728 0.83324511726 -0.48547012543 -0.42693389931 0.76291952586 -0.46597307713 -0.54389934931 0.69788436665 
-0.45238011385 -0.61357873418 0.6472042719 -0.44436348755 -0.65559713398 0.61051903233 -0.44073656605 -0.67914291152 0.58695501113 
-0.43934666575 -0.69104056262 0.57396641723 -0.43934666575 -0.69104056262 0.57396641723 
FrenetBinormal 3 128 double
-0.2585634851 0.94550620368 0.19789629348 -0.2585634851 0.94550620368 0.19789629348 -0.24813025669 0.93526597645 0.25240627769 
-0.23165797625 0.91572789406 0.32829408474 -0.21007860899 0.88578183819 0.41383271158 -0.18521535806 0.84718230101 0.49797331253 
-0.1592893111 0.80390572246 0.57302923553 -0.13413268172 0.76015240364 0.63574896534 -0.1108281386 0.71891826192 0.68620234361 
-0.089550493996 0.68127828855 0.72652639496 -0.06979852396 0.64674251822 0.75950792042 -0.05019543863 0.61305398793 0.7884448147 
-0.028070623955 0.57564676554 0.81721652051 0.0017357363416 0.5256020857 0.85072876684 0.049302613161 0.44457459148 0.89438396952 
0.13347905334 0.29306918976 0.94672793998 0.27375925538 0.0066907911569 0.96177497545 0.42475359344 -0.38550604852 0.81912726203 
0.49195674331 -0.65947923883 0.56838868414 0.50209449483 -0.77372215333 0.38633553772 0.50066149317 -0.81540556625 0.29060597341 
0.49952788342 -0.83034239552 0.24698866348 0.49945267586 -0.83497868966 0.23099266737 0.49951343851 -0.83538538486 0.22938522951 