# vtk DataFile Version 4.2
vtk output
ASCII
DATASET POLYDATA
POINTS 128 float
0 0 0 0.0101907 0.334514 0.0377628 -0.00553279 0.987126 0.127256 
-0.102455 1.51955 0.238016 -0.264048 1.94039 0.366109 -0.458244 2.36906 0.515083 
-0.683209 2.7964 0.684673 -0.942898 3.18708 0.873563 -1.231 3.54205 1.08023 
-1.53927 3.87077 1.3032 -1.86482 4.17214 1.54146 -2.20625 4.44223 1.79409 
-2.56161 4.6793 2.0601 -2.92888 4.8819 2.33833 -3.30676 5.04639 2.62726 
-3.69417 5.16803 2.92496 -4.08984 5.24015 3.228 -4.49201 5.25507 3.53181 
-4.8965 5.20311 3.82788 -5.29767 5.07541 4.10612 -5.68671 4.87276 4.35549 
-6.05473 4.60125 4.56618 -6.40033 4.27701 4.73887 -6.72596 3.91956 4.87896 
-7.03947 3.54378 4.99521 -7.35088 3.16219 5.09731 -7.66892 2.7842 5.19151 
-8.0014 2.41763 5.28205 -8.35305 2.06867 5.36957 -8.72675 1.74228 5.45281 
-9.12163 1.43974 5.52867 -9.53498 1.1603 5.59316 -9.96351 0.901257 5.64214 
-10.4035 0.658767 5.6713 -10.8506 0.428163 5.6755 -11.2999 0.204198 5.64899 
-11.746 -0.019639 5.58439 -12.1818 -0.251049 5.47245 -12.5807 -0.50271 5.29407 
-12.9051 -0.788208 5.02749 -13.1162 -1.09915 4.68481 -13.1794 -1.41439 4.29872 
-13.1116 -1.72101 3.89926 -12.9597 -2.01201 3.51298 -12.7539 -2.28893 3.14743 
-12.513 -2.55853 2.79823 -12.2487 -2.82533 2.46332 -11.9682 -3.09234 2.14228 
-11.6767 -3.36308 1.83457 -11.3783 -3.64141 1.5398 -11.0759 -3.93107 1.26088 
-10.7722 -4.23594 1.00326 -10.468 -4.56389 0.773708 -10.1632 -4.92528 0.58226 
-9.86581 -5.32073 0.476083 -9.59073 -5.74089 0.528397 -9.35862 -6.13924 0.754814 
-9.19312 -6.44232 1.12185 -9.08986 -6.63424 1.58078 -9.02251 -6.7458 2.07343 
-8.97774 -6.79579 2.57169 -8.95403 -6.79148 3.0733 -8.95072 -6.73874 3.57433 
-8.96774 -6.64254 4.06867 -9.00623 -6.5077 4.55208 -9.06848 -6.33905 5.02208 
-9.15664 -6.14265 5.47704 -9.2727 -5.92575 5.91609 -9.41809 -5.69684 6.33994 
-9.59368 -5.46556 6.75088 -9.79931 -5.24272 7.15241 -10.0337 -5.04027 7.54921 
-10.294 -4.87213 7.94598 -10.5754 -4.75428 8.34721 -10.8691 -4.70265 8.7541 
-11.1614 -4.73272 9.16395 -11.4374 -4.85177 9.57012 -11.6809 -5.05714 9.96155 
-11.881 -5.33975 10.3289 -12.0337 -5.68338 10.6655 -12.1389 -6.07293 10.9675 
-12.2013 -6.49538 11.2351 -12.226 -6.94034 11.4694 -12.2185 -7.40078 11.6728 
-12.1839 -7.87122 11.8481 -12.1274 -8.34804 11.9985 -12.0538 -8.82854 12.1279 
-11.9677 -9.31114 12.2406 -11.873 -9.79472 12.3412 -11.7732 -10.2788 12.4345 
-11.6714 -10.7627 12.5256 -11.5698 -11.2461 12.6204 -11.4694 -11.7277 12.7247 
-11.3698 -12.2059 12.8451 -11.2683 -12.6775 12.988 -11.1588 -13.1375 13.1599 
-11.0326 -13.5792 13.3657 -10.8758 -13.9927 13.608 -10.6741 -14.3645 13.8842 
-10.413 -14.6752 14.1827 -10.0866 -14.9113 14.4879 -9.70653 -15.0719 14.7791 
-9.28664 -15.1642 15.0416 -8.84153 -15.2077 15.2748 -8.38266 -15.2205 15.4809 
-7.91443 -15.2138 15.6645 -7.43983 -15.1962 15.83 -6.96062 -15.1735 15.9812 
-6.47821 -15.1502 16.1215 -5.99344 -15.1292 16.2536 -5.50704 -15.1125 16.3804 
-5.01973 -15.1008 16.5041 -4.53219 -15.0944 16.6273 -4.04504 -15.0926 16.7522 
-3.55889 -15.0944 16.8811 -3.07446 -15.098 17.0159 -2.59241 -15.102 17.1588 
-2.11322 -15.1059 17.3121 -1.63776 -15.1094 17.478 -1.1683 -15.1126 17.6562 
-0.706131 -15.1176 17.8485 -0.248522 -15.1333 18.0641 0.202575 -15.1656 18.3064 
0.626545 -15.2052 18.5527 1.01846 -15.2532 18.7989 1.44813 -15.3628 19.131 
1.91555 -15.5463 19.5584 2.14474 -15.6491 19.781 
LINES 1 129
128 0 1 2 3 4 5 6 7 8 9 10 11 12 13 14 15 16 17 18 19 20 21 22 23 24 25 26 27 28 29 30 31 32 33 34 35 36 37 38 39 40 41 42 43 44 45 46 47 48 49 50 51 52 53 54 55 56 57 58 59 60 61 62 63 64 65 66 67 68 69 70 71 72 73 74 75 76 77 78 79 80 81 82 83 84 85 86 87 88 89 90 91 92 93 94 95 96 97 98 99 100 101 102 103 104 105 106 107 108 109 110 111 112 113 114 115 116 117 118 119 120 121 122 123 124 125 126 127 

CELL_DATA 1
FIELD FieldData 2
Length 1 1 double
57.414194051 
Tortuosity 1 1 double
1.268109656 
POINT_DATA 128
SCALARS MaximumInscribedSphereRadius float
LOOKUP_TABLE default
0.62 0.710776 0.801552 0.841829 0.877784 0.811863 0.744099 0.825209 0.914707 
1.05167 1.19206 1.09434 0.974676 0.909101 0.849623 0.968088 1.11037 1.10966 
1.08676 1.0186 0.942469 0.93297 0.936523 0.948187 0.961626 0.963104 0.961651 
0.951526 0.939034 0.944371 0.955078 1.02293 1.10967 1.28712 1.49737 1.56305 
1.57172 1.4693 1.31939 1.23564 1.18238 1.17665 1.19264 1.21124 1.23111 
1.23864 1.23964 1.24 1.24 1.24 1.24 1.24 1.24 1.24 
1.24 1.24 1.24 1.24 1.24 1.24 1.24 1.2565 1.2867 
1.31951 1.35465 1.35397 1.3193 1.29028 1.26699 1.25821 1.26518 1.29643 
1.35593 1.41349 1.46864 1.46189 1.3734 1.30835 1.27597 1.25968 1.26715 
1.26866 1.26076 1.26666 1.29586 1.34485 1.4298 1.4966 1.52777 1.54879 
1.54821 1.52553 1.45185 1.37987 1.31211 1.25952 1.24836 1.24 1.24 
1.22971 1.18626 1.13972 1.08246 1.06135 1.17761 1.29504 1.41736 1.52113 
1.53679 1.55 1.55 1.54962 1.54692 1.53307 1.43857 1.33651 1.16919 
1.02081 1.07235 1.12259 1.15513 1.18085 1.08915 0.997316 0.898027 0.799502 
0.709751 0.62 
TEXTURE_COORDINATES TCoords 2 float
0 0 0.00787402 0 0.015748 0 0.023622 0 0.0314961 
0 0.0393701 0 0.0472441 0 0.0551181 0 0.0629921 0 
0.0708661 0 0.0787402 0 0.0866142 0 0.0944882 0 0.102362 
0 0.110236 0 0.11811 0 0.125984 0 0.133858 0 
0.141732 0 0.149606 0 0.15748 0 0.165354 0 0.173228 
0 0.181102 0 0.188976 0 0.19685 0 0.204724 0 
0.212598 0 0.220472 0 0.228346 0 0.23622 0 0.244094 
0 0.251969 0 0.259843 0 0.267717 0 0.275591 0 
0.283465 0 0.291339 0 0.299213 0 0.307087 0 0.314961 
0 0.322835 0 0.330709 0 0.338583 0 0.346457 0 
0.354331 0 0.362205 0 0.370079 0 0.377953 0 0.385827 
0 0.393701 0 0.401575 0 0.409449 0 0.417323 0 
0.425197 0 0.433071 0 0.440945 0 0.448819 0 0.456693 
0 0.464567 0 0.472441 0 0.480315 0 0.488189 0 
0.496063 0 0.503937 0 0.511811 0 0.519685 0 0.527559 
0 0.535433 0 0.543307 0 0.551181 0 0.559055 0 
0.566929 0 0.574803 0 0.582677 0 0.590551 0 0.598425 
0 0.606299 0 0.614173 0 0.622047 0 0.629921 0 
0.637795 0 0.645669 0 0.653543 0 0.661417 0 0.669291 
0 0.677165 0 0.685039 0 0.692913 0 0.700787 0 
0.708661 0 0.716535 0 0.724409 0 0.732283 0 0.740157 
0 0.748031 0 0.755906 0 0.76378 0 0.771654 0 
0.779528 0 0.787402 0 0.795276 0 0.80315 0 0.811024 
0 0.818898 0 0.826772 0 0.834646 0 0.84252 0 
0.850394 0 0.858268 0 0.866142 0 0.874016 0 0.88189 
0 0.889764 0 0.897638 0 0.905512 0 0.913386 0 
0.92126 0 0.929134 0 0.937008 0 0.944882 0 0.952756 
0 0.96063 0 0.968504 0 0.976378 0 0.984252 0 
0.992126 0 1 0 
FIELD FieldData 7
Curvature 1 128 double
0 0.037199678233 0.068872592254 0.097461340817 0.12191950323 0.141633628 0.15659284039 0.16744412758 0.17532993484 
0.18164237048 0.18771484215 0.19459840207 0.20289871781 0.21264720319 0.22318219029 0.23308678178 0.24029678585 0.24241863529 
0.23741942496 0.22438786654 0.20397093566 0.17823880409 0.15007968689 0.12261973653 0.098906039915 0.081801215654 0.073256101825 
0.072726650848 0.077264247086 0.084131552042 0.092444525237 0.10319515335 0.11858006717 0.14103787985 0.17237003203 0.21317735109 
0.26217970777 0.31497278631 0.3629861923 0.39460065647 0.40009863218 0.37794818258 0.33586327508 0.28583846521 0.23829624738 
0.19994391372 0.17473327596 0.16506432453 0.17213230802 0.19608847118 0.23716553193 0.29660635836 0.37556188736 0.47134699303 
0.57119013049 0.64880517768 0.67468379978 0.63904545524 0.56060199404 0.46869736623 0.3836199201 0.31291747168 0.25645565209 
0.21140372442 0.17485053894 0.14491423102 0.12114993831 0.10486123314 0.098989102189 0.10586225036 0.12455928755 0.15197886306 
0.18485202411 0.22003842741 0.2540381939 0.28277805657 0.30218035982 0.30932246274 0.30350129846 0.28643805373 0.26140106842 
0.23201176469 0.20117469605 0.17093787622 0.14243022193 0.11628254468 0.093010488628 0.073445012527 0.059431632134 0.054054217436 
0.059219908728 0.073020948784 0.092364663166 0.11536271923 0.14086940577 0.16769591244 0.19395482827 0.21690542274 0.23331075362 
0.24022555342 0.23620971112 0.22193355478 0.19995303195 0.17358393938 0.14588656749 0.11909315156 0.094443937285 0.072495211206 
0.053259836553 0.03652499312 0.021859069704 0.0089036614104 0.0030627927675 0.013796687396 0.024021080193 0.033736564817 0.042981684657 
0.05155284912 0.059081678496 0.065070836489 0.068766023717 0.069402861675 0.066336401108 0.059156788776 0.047969341436 0.033303847055 
0.016219704837 0 
Torsion 1 128 double
0 0 0.012941552492 0.017309030595 0.021226195507 0.024144128149 0.025366508106 0.024124296137 0.019728194316 
0.011887416629 0.00094304675124 -0.012028476582 -0.02542759897 -0.037779254156 -0.048135276295 -0.056413067765 -0.063296659774 -0.070148514468 
-0.078896201165 -0.091949546525 -0.11269170922 -0.14640523049 -0.20094256276 -0.28640806946 -0.40655381149 -0.52483349483 -0.53801827284 
-0.39347229537 -0.18128659319 0.015373141919 0.17416979603 0.28757144445 0.34566410579 0.34911637307 0.31647629049 0.27085085196 
0.22728247567 0.1921136376 0.16709654097 0.15240066058 0.14837669047 0.1562326561 0.17851167564 0.21934476122 0.28294151201 
0.36691383334 0.44804865409 0.47736051344 0.42249895215 0.31292665763 0.19954435665 0.10804713093 0.041852225441 -0.0029327149353 
-0.031146969452 -0.047303229157 -0.054326470682 -0.053539510889 -0.044340375002 -0.025296692047 0.0040487875954 0.043809192014 0.094255367653 
0.15780613711 0.24059907877 0.35369363089 0.50797143878 0.68650673444 0.79509397375 0.73448370248 0.57275055134 0.4214961864 
0.31346977284 0.24028900755 0.18991559046 0.15379612767 0.12645609202 0.1049041403 0.087298604181 0.072849583318 0.061529250242 
0.053843580274 0.051683703301 0.058094807596 0.07842508184 0.12303305007 0.21051473217 0.36920849085 0.59698902454 0.72620507547 
0.56395062478 0.30590971279 0.12123376407 0.011896640915 -0.050811031907 -0.086335676891 -0.10559494331 -0.11535018353 -0.11973995693 
-0.12146734578 -0.12203007794 -0.12261816957 -0.12377562669 -0.12549290938 -0.12787010678 -0.13059470174 -0.13285835062 -0.13322010283 
-0.12944823666 -0.11692695829 -0.079605706717 0.15667393745 2.210530309 0.051517907592 0.0014375020279 0.0079637960273 0.022612341454 
0.035788189999 0.044535524228 0.048095056065 0.048040157369 0.044397019195 0.038530648017 0.031706162141 0.023929267462 0.016989503729 
0 0 
Abscissas 1 128 double
0 0.50290021035 1.0058004207 1.5087054202 2.0116108295 2.5145107907 3.0174106533 3.5203104461 4.0232102349 
4.526114304 5.0290186825 5.5319208584 6.0348228314 6.5377270243 7.0406314674 7.5435349408 8.0464382845 8.5493390484 
9.0522394119 9.5551412922 10.05804344 10.560944003 11.063844255 11.566745017 12.069645891 12.572550038 13.075454988 
13.578355013 14.081253694 14.584155351 15.087057903 15.589968527 16.092881818 16.595764129 17.098635237 17.601551577 
18.104485755 18.607381362 19.110260482 19.613160805 20.116070903 20.618978234 21.121884301 21.624786439 22.127686651 
22.630582815 23.133476838 23.636373243 24.139271006 24.642175411 25.145083895 25.64798633 26.15088476 26.653787581 
27.156693495 27.659597381 28.162499757 28.665403048 29.168307003 29.671208284 30.174107464 30.677009706 31.179914488 
31.682815822 32.185714092 32.688615518 33.19151994 33.694422392 34.197322843 34.700224657 35.203127953 35.706031051 
36.208933921 36.711836048 37.214737253 37.717643337 38.220555868 38.723462962 39.226362476 39.729262266 40.232162465 
40.735058999 41.237949756 41.740846691 42.243754071 42.746661408 43.249568668 43.752477301 44.255388633 44.758285004 
45.261149596 45.764038787 46.26698472 46.769911542 47.272790461 47.775679589 48.278596621 48.781503555 49.284380459 
49.787261257 50.290154599 50.793054717 51.29597829 51.798894066 52.301780205 52.804672223 53.307589095 53.810502001 
54.313396065 54.816291571 55.319194854 55.822097834 56.324998944 56.827899777 57.330798604 57.833698187 58.336604284 
58.839510758 59.342421211 59.845330392 60.348222363 60.851115514 61.354028953 61.85694192 62.35982664 62.862713628 
63.365626647 63.868539666 
ParallelTransportNormals 3 128 double
-0.99995420569 -0.0095700845745 0 -0.98284600925 -0.13008673428 -0.023066979716 -0.96573781281 -0.25060338398 -0.046133959431 
-0.9369401043 -0.33184479736 -0.070349615015 -0.90714198773 -0.40972497006 -0.094663576207 -0.86986156402 -0.47144749125 -0.12221592692 
-0.83244571504 -0.53287756863 -0.14982689055 -0.79635628985 -0.57540838423 -0.1760243316 -0.76034159147 -0.61687447113 -0.20214213896 
-0.72312472384 -0.64901863296 -0.22954702044 -0.68582100756 -0.68048934832 -0.25704488438 -0.64427444899 -0.70596065939 -0.28830997306 
-0.60233690834 -0.73087911947 -0.31992221521 -0.54967176112 -0.75045505455 -0.360133491 -0.49579735498 -0.76942875874 -0.40131408441 
-0.42105425295 -0.77702820518 -0.45768566135 -0.34351780507 -0.78310516858 -0.51609060304 -0.24040370146 -0.76006727752 -0.58884548524 
-0.133319057 -0.73250974948 -0.66382797679 -0.02822815651 -0.67067806901 -0.72810068841 0.076511486198 -0.60280796879 -0.79048655115 
0.1435268307 -0.5413954729 -0.82369347452 0.20315359202 -0.48124774663 -0.85118548651 0.22806810743 -0.45366346606 -0.86106488299 
0.24539180568 -0.43320010654 -0.86709278151 0.24300627037 -0.43557835399 -0.86666179033 0.2357902137 -0.44355483386 -0.86464779469 
0.22240647933 -0.45592280298 -0.86154564683 0.20734043558 -0.46948860439 -0.85814669218 0.19964529488 -0.47559012228 -0.85668666464 
0.19416993653 -0.47944373585 -0.85581055419 0.20444336658 -0.47374669228 -0.85642474119 0.21992305516 -0.46489237787 -0.857531593 
0.25792851465 -0.4451465008 -0.85602375033 0.30407885636 -0.42146244574 -0.85357048479 0.38827312977 -0.37522686637 -0.8341528734 
0.48747013599 -0.32009802915 -0.8080453239 0.62598874766 -0.2086028038 -0.71552137989 0.78131456783 -0.073014929445 -0.59460911914 
0.86686558909 0.088580032479 -0.41640269714 0.92024890994 0.26216482761 -0.21178242026 0.91247408609 0.37726176295 -0.068637851058 
0.87673676238 0.4656170962 0.04639902332 0.84548694824 0.51805252024 0.11441311455 0.81643727621 0.55287708386 0.15937281368 
0.79696732059 0.57413542638 0.18599575439 0.78256429925 0.5882182798 0.20291995816 0.77560776062 0.59496451067 0.21078709565 
0.77289867106 0.59752595633 0.21348811255 0.77570777443 0.59460066163 0.21127267027 0.78190660189 0.58830496357 0.20603713786 
0.79110102042 0.57775211822 0.20017462826 0.8022784127 0.56438119417 0.19389708229 0.80396521423 0.56320127308 0.19072651025 
0.79896656695 0.57060904988 0.18974458122 0.78459585471 0.5950066662 0.16592477699 0.76324784144 0.63205285309 0.12510266524 
0.74938229776 0.65566122616 0.07839690216 0.74094381602 0.66952310484 0.027423705738 0.73612659504 0.67570193741 -0.016977351619 
0.73415491774 0.6758435236 -0.056214100163 0.73374775965 0.67329055702 -0.088017440802 0.73463923856 0.6685009634 -0.11365064394 
0.73559272668 0.66486076891 -0.12966607703 0.73660128048 0.66224126886 -0.13714069576 0.73512031026 0.66452920894 -0.13337862881 
0.73127639959 0.671475063 -0.11895122226 0.72137970279 0.68511469941 -0.09301650398 0.70533940787 0.70554854726 -0.055401825911 
0.67966860589 0.73046413813 -0.006176137654 0.64353414154 0.760249197 0.055665053578 0.59579712536 0.78697181394 0.1300890634 
0.53456346865 0.81013205267 0.21915000671 0.46736849108 0.8182351274 0.31630027097 0.39276255839 0.80761953744 0.42350696332 
0.32536767773 0.77961166049 0.52547757758 0.26749805248 0.72862988526 0.62053172793 0.22185670952 0.67162390676 0.70255539106 
0.19326130689 0.60622032937 0.76641485889 0.17270880684 0.54324389459 0.81963321356 0.16403728245 0.48385283489 0.85713251588 
0.15905803311 0.42872197148 0.88833024351 0.15990031941 0.38030807375 0.90959240533 0.16202497254 0.33638365267 0.92719776239 
0.16631774525 0.30004966671 0.93862049696 0.17048121388 0.2687260128 0.94784299364 0.17440951203 0.24651484971 0.95306382984 
0.177403677 0.22987652612 0.95690376195 0.17856431961 0.22417660645 0.95803324692 0.1783703103 0.22499923462 0.95782678817 
0.17529879759 0.23967682693 0.95478256529 0.17053084016 0.26215019539 0.94933987394 0.16184987758 0.30260523575 0.9383648953 
0.15052915606 0.35096481244 0.92267906235 0.13259133973 0.41913872343 0.89518451118 0.10953571376 0.49135344482 0.86104812696 
0.072493550103 0.57461135675 0.80876017895 0.029176036686 0.65289030574 0.7533485437 -0.032805101459 0.71636123613 0.688646697 
-0.092583888957 0.76959291067 0.6302413017 -0.14526663878 0.78983340581 0.5921232555 -0.19017169645 0.80592820619 0.56049038442 
-0.20815494726 0.80767304374 0.55130538457 -0.22186126684 0.80906120858 0.54423774571 -0.21930988195 0.80909356964 0.54521873504 
-0.21514680947 0.80921075783 0.54666585005 -0.20416987142 0.80968657674 0.55008364341 -0.1928973254 0.81016475436 0.55350546135 
-0.1802206504 0.81065413579 0.55694639597 -0.16811001599 0.81109554047 0.56021209098 -0.15905221264 0.81127819178 0.56253266484 
-0.15107340269 0.81143587662 0.56457787748 -0.14978172515 0.81143883007 0.56491652094 -0.1496172893 0.81144789652 0.56493455841 
-0.15760825176 0.81150118944 0.56263306717 -0.16624842291 0.81156038894 0.56007713136 -0.18048385768 0.81167049482 0.55532824212 
-0.19465038215 0.81178740887 0.55052469185 -0.20808884308 0.81197625398 0.54514362683 -0.22097696463 0.81217102603 0.53994669872 
-0.2264248666 0.81244592626 0.53723917826 -0.23140287698 0.81268340458 0.53478679486 -0.22829893707 0.81227724083 0.53672266834 
-0.2249941623 0.81180534778 0.53882918339 -0.20966248883 0.80739728679 0.55115448681 -0.19555880565 0.80334228941 0.56249259514 
-0.19555880565 0.80334228941 0.56249259514 -0.19555880565 0.80334228941 0.56249259514 
FrenetTangent 3 128 double
-0.28767657994 0.91938698718 0.26827178971 -0.28767657994 0.91938698718 0.26827178971 -0.30790065573 0.90929240209 0.27997234452 
-0.33895840389 0.8923348317 0.29807003969 -0.3786618429 0.86792068533 0.32144811823 -0.42439470024 0.83562272299 0.34874604403 
-0.47344553859 0.79534846339 0.37851042756 -0.52334900792 0.74735649444 0.40934592477 -0.57213823299 0.69212712878 0.44002031767 
-0.61844472521 0.63015959582 0.46949441494 -0.66144015332 0.56179086412 0.49687820295 -0.70066418627 0.48711146015 0.5213368618 
-0.73580587457 0.40600602471 0.54198599875 -0.76649553051 0.31832173486 0.55781347674 -0.79216185722 0.22414804576 0.56765944504 
-0.8120016899 0.12416549318 0.57029482366 -0.82510828171 0.019972241064 0.56462149537 -0.83076455227 -0.08574283581 0.54998038583 
-0.82883790017 -0.18933557721 0.52647865525 -0.82011469762 -0.28672679381 0.49517636096 -0.80637535182 -0.37416374538 0.45799594279 
-0.79012949836 -0.44891298472 0.41733979916 -0.77411876727 -0.50959984985 0.37556374585 -0.76079047088 -0.55613774402 0.33452753114 
-0.75192016632 -0.58939642907 0.29534371989 -0.74843753839 -0.61082400619 0.25833173361 -0.75041165466 -0.62217593866 0.22311308771 
-0.757143107 -0.625381283 0.1887659037 -0.76730536166 -0.62251694854 0.15399717771 -0.77911332969 -0.61581131111 0.11729811851 
-0.79048545254 -0.60761195233 0.077074410181 -0.79915166018 -0.60029039873 0.031749979739 -0.80267111907 -0.59608110474 -0.020159146362 
-0.79833996632 -0.5968746317 -0.07996231747 -0.78302007101 -0.60397555063 -0.14863748733 -0.75298887165 -0.61781667517 -0.22651780296 
-0.70401984671 -0.6376149505 -0.31273508012 -0.63203255721 -0.66103571715 -0.40443371185 -0.53462133894 -0.68414912527 -0.49610482596 
-0.4132345513 -0.70215909283 -0.57983602334 -0.27466926156 -0.71109539923 -0.6472249454 -0.13000381243 -0.70968324946 -0.69242233802 
0.0090878118415 -0.69992757804 -0.71415600339 0.13408208859 -0.68594921652 -0.71518925179 0.24104119827 -0.67219248443 -0.70004028785 
0.32978336592 -0.66223003896 -0.67282561416 0.40227359129 -0.65840684238 -0.63614179838 0.46127282309 -0.66195264661 -0.59080121557 
0.50949428076 -0.6731777312 -0.53595458772 0.54912806274 -0.6915375913 -0.4692910936 0.58149395458 -0.71548224928 -0.38723369139 
0.60665974184 -0.74202753072 -0.28523516838 0.62295047919 -0.76603143446 -0.15851984704 0.62650545554 -0.77940738227 -0.0038790001411 
0.61150893579 -0.77120308588 0.17692546956 0.57223777968 -0.7303034955 0.37309613769 0.5071731364 -0.65141926376 0.56429456183 
0.42203934191 -0.54026365372 0.72800960045 0.32766758412 -0.41147927694 0.85048148655 0.23429669942 -0.28069730991 0.93075994588 
0.14792203239 -0.15869361585 0.97618410591 0.070403422999 -0.050761476692 0.99622619445 0.0011643183925 0.04131957816 0.99914530316 
-0.061300079115 0.11734839989 0.99119708098 -0.11856489785 0.1775634019 0.97694094156 -0.17189928004 0.22216031634 0.95973716786 
-0.22214990977 0.25114259472 0.9421129522 -0.26970628086 0.26431129784 0.92595791475 -0.3145050288 0.26131329407 0.91257983169 
-0.35604513164 0.24168721245 0.90267333824 -0.39336085701 0.2049494225 0.89624939073 -0.4250134357 0.15075255736 0.89254537471 
-0.44911607547 0.079155134752 0.88996023248 -0.46342576452 -0.008961316685 0.88609043307 -0.46564247856 -0.11139886573 0.87793358227 
-0.45391060785 -0.22426100213 0.86236428671 -0.42744916549 -0.34197057472 0.83686518445 -0.38708957003 -0.45792993809 0.8002885958 
-0.33536906706 -0.56573708596 0.75330547484 -0.2760640949 -0.66047417707 0.69825674141 -0.21335322968 -0.7394624218 0.63849489123 
-0.1510045228 -0.80225359691 0.57756973635 -0.091894557439 -0.85005142007 0.51862122358 -0.037856847274 -0.88496664357 0.46411302383 
0.010226788152 -0.90939096032 0.41581665923 0.052235471756 -0.92557636068 0.37493980321 0.088641423598 -0.93541253536 0.34226610511 
0.12037332139 -0.94032589384 0.3182726455 0.14872065453 -0.94125028909 0.30319970352 0.17525611372 -0.93863670905 0.29706299506 
0.2017604841 -0.93247030823 0.29965285137 0.23014346728 -0.92229817918 0.31048357953 0.26231722167 -0.90725943458 0.3287400091 
0.30003054782 -0.88613196318 0.35320222849 0.34463920788 -0.85742002683 0.3821710533 0.39682595979 -0.81952244511 0.41341519033 
0.45629248175 -0.77104434796 0.4441708957 0.52149871747 -0.71126936477 0.47131197567 0.58965770122 -0.64069966458 0.49173949932 
0.65710555613 -0.56145055309 0.50297670377 0.72005920538 -0.47720345598 0.50377733409 0.77549659203 -0.39257601091 0.49445840211 
0.82176315058 -0.31213735763 0.47673430159 0.85864534316 -0.23951897758 0.45316534956 0.8869965799 -0.17696848884 0.42651989545 
0.90821765841 -0.12536166588 0.39928077549 0.92380736669 -0.084506860482 0.37341470216 0.93509272451 -0.05351388959 0.35033963547 
0.94311785734 -0.031115559763 0.33099928868 0.94863677625 -0.015909062971 0.31596703699 0.95215282855 -0.0065234955666 0.30555267155 
0.95397601803 -0.0017284112836 0.29987792453 0.95427056535 -0.00050067161697 0.29894387004 0.95309630276 -0.002077478829 0.30266007623 
0.95043669632 -0.0059667658521 0.31086087563 0.94621536403 -0.011915871527 0.32331795012 0.94031893311 -0.019864542217 0.33971415043 
0.93262427981 -0.02986341239 0.35961108063 0.92304451544 -0.04195697219 0.38239826751 0.91158015429 -0.056070899114 0.40728083256 
0.89839462915 -0.071899890664 0.4332637719 0.88389820245 -0.088848238737 0.45916223513 0.86879225831 -0.1060198772 0.48369390894 
0.85407064967 -0.12228597234 0.50557834836 0.84093233456 -0.13642426362 0.52366136863 0.83061446203 -0.1472818292 0.53701739102 
0.8241793902 -0.15394691792 0.54500337543 0.8241793902 -0.15394691792 0.54500337543 
FrenetNormal 3 128 double
-0.79987299834 -0.3846991802 0.4606622703 -0.79987299834 -0.3846991802 0.4606622703 -0.78988378955 -0.40834308544 0.45753636312 
-0.77327257543 -0.44470797305 0.45197825478 -0.74957192507 -0.49131136099 0.44357082378 -0.71853426815 -0.54516466278 0.43186108409 
-0.68034737445 -0.60313613322 0.4163583251 -0.63573461909 -0.66232537532 0.39644241863 -0.58583711457 -0.72035104368 0.37133441675 
-0.53200436 -0.7754615974 0.34004510274 -0.47543028163 -0.82646133816 0.30154220905 -0.4168912724 -0.87248043699 0.25491087474 
-0.35652435816 -0.91269677354 0.1996872094 -0.29392079273 -0.94610157252 0.13602346148 -0.22848875797 -0.97139328494 0.064714553643 
-0.15992915386 -0.98704536701 -0.012810511532 -0.088804987855 -0.9915368348 -0.094701527813 -0.016844157864 -0.98373937953 -0.1788102556 
0.052899618288 -0.96330374439 -0.26314924745 0.11630770278 -0.93085838677 -0.34637433803 0.16855212676 -0.88770344393 -0.42845393707 
0.20419455994 -0.83477137933 -0.5113328915 0.21655785881 -0.7706565582 -0.59932559022 0.19666171478 -0.68876946904 -0.69779709692 
0.1324144288 -0.57389033221 -0.80815611465 0.016238994714 -0.40628176967 -0.91360353474 -0.13028689497 -0.19169580979 -0.97276823628 
-0.25012205697 0.010590780351 -0.96815638819 -0.30519658758 0.14328715776 -0.94144773267 -0.29719936761 0.19809787841 -0.93403948871 
-0.23754045739 0.18814929974 -0.95298183199 -0.13562792492 0.12859906945 -0.98237841249 -0.0036939659735 0.038768035824 -0.99924140928 
0.14118007499 -0.056422162656 -0.98837479024 0.28408769117 -0.1346843666 -0.94929147532 0.41843448178 -0.18387778954 -0.88943889221 
0.54396568501 -0.20104215611 -0.8146676531 0.66132700434 -0.18804224313 -0.7261451013 0.76842184924 -0.14921712043 -0.62230387479 
0.85990651629 -0.091351306336 -0.50221083428 0.92945207663 -0.023913847389 -0.36816703432 0.97334426586 0.041732343326 -0.22552018012 
0.99232917187 0.094367531955 -0.07985977436 0.99002323058 0.12426680539 0.066421111048 0.968733879 0.12296368115 0.21548690167 
0.92475536338 0.083226530058 0.37135005399 0.84680336044 0.0034722509649 0.53189473791 0.72568674336 -0.10164775004 0.6804751909 
0.57380604354 -0.19834849635 0.79460965158 0.42181262279 -0.25542478534 0.8699610855 0.28966977546 -0.26269962822 0.9203696684 
0.17716536752 -0.22358215211 0.95844846174 0.074394142033 -0.143710317 0.98681956629 -0.028421207963 -0.027818537108 0.99920886902 
-0.1362724029 0.11761313603 0.98366507635 -0.246652148 0.28061665316 0.92758666002 -0.35005464516 0.44260899375 0.82556588111 
-0.43551482977 0.58347653946 0.68547936581 -0.4972560846 0.69030488918 0.52556212412 -0.53770017236 0.7602181655 0.36461879475 
-0.5644829125 0.79692881614 0.21508952441 -0.58694791201 0.80540851916 0.082518275828 -0.61377201515 0.78883829124 -0.031907110291 
-0.65218456186 0.74704206139 -0.12877676725 -0.70785700373 0.67486164086 -0.20856708265 -0.78343053265 0.55981014204 -0.2699059195 
-0.87305968107 0.37893383463 -0.30688099039 -0.94599229203 0.10690185681 -0.30605649221 -0.93662032459 -0.24176045093 -0.25356311231 
-0.80493879981 -0.5699886811 -0.16488308579 -0.60573196325 -0.79112150848 -0.084944378959 -0.40877626785 -0.91172847281 -0.040659005321 
-0.23739105638 -0.97083807738 -0.033450169648 -0.089228981044 -0.99439461019 -0.056723435773 0.04179563704 -0.99370694242 -0.10392130347 
0.16010729287 -0.97258547038 -0.16865099339 0.26685973934 -0.93217524826 -0.24461231785 0.3613517932 -0.87386388248 -0.32524882237 
0.44216520224 -0.80059369965 -0.40440037341 0.50835286501 -0.71689280668 -0.47711850558 0.56024044292 -0.62801392484 -0.54011957594 
0.59947560438 -0.53889190381 -0.59179769834 0.62887391848 -0.4533584567 -0.63165156882 0.65270601516 -0.37358039919 -0.65909979754 
0.67626618157 -0.30002688201 -0.67279114273 0.70721938742 -0.23079289013 -0.66826295717 0.75561599275 -0.16073713405 -0.63498664965 
0.83247518779 -0.07904827231 -0.54839441313 0.93076713426 0.029680258096 -0.36440585074 0.98445629942 0.16356758703 -0.063964357342 
0.93091094834 0.27767400881 0.23728032175 0.83932711984 0.3495882222 0.41631485778 0.77555348477 0.40092427866 0.48762333316 
0.74410243048 0.4490854323 0.49460473861 0.73071451321 0.50060128311 0.46417093352 0.72321195547 0.55650536288 0.40898196606 
0.71266223037 0.61555971213 0.33645027301 0.69370307834 0.67504982432 0.25116483388 0.66368106013 0.73134347056 0.15704833174 
0.62259236837 0.78041152466 0.05776326712 0.57258909547 0.81872037536 -0.042879770548 0.51738814548 0.84399299083 -0.14136950995 
0.46137090348 0.85547226765 -0.23516821364 0.4084773256 0.85382737648 -0.3226841887 0.36164573089 0.84056048749 -0.40332422714 
0.32266499111 0.8173421667 -0.47732492713 0.2921660929 0.78592479426 -0.54494145733 0.26996772496 0.74799583801 -0.60631646341 
0.25519156253 0.70588295667 -0.66076207359 0.24660055816 0.66282410583 -0.70700238291 0.24204483891 0.62651185049 -0.7408759661 
0.23451364611 0.62754607162 -0.74242122665 -0.29205159109 -0.21506043219 0.93190926525 -0.276985437 -0.40909427566 0.86943714052 
-0.28553501801 -0.41242191019 0.86508838941 -0.29928487006 -0.41185038794 0.86070193709 -0.31654292956 -0.41747890838 0.85176988371 
-0.33675588859 -0.43007054282 0.83763643647 -0.35955741042 -0.44751598983 0.8188088345 -0.38445062968 -0.46726857077 0.79615186749 
-0.41076291273 -0.48670233193 0.77096995377 -0.43735821808 -0.50479027235 0.74424765368 -0.4631830434 -0.51941382527 0.71810218383 
-0.48663400013 -0.53113656769 0.69360024249 -0.50650756425 -0.5390643953 0.6729484862 -0.52137035177 -0.54441766736 0.65710148361 
-0.53046738574 -0.54685928242 0.64772623684 -0.53046738574 -0.54685928242 0.64772623684 
FrenetBinormal 3 128 double
0.52673083437 -0.082061614374 0.84606177054 0.52673083437 -0.082061614374 0.84606177054 0.53035910967 -0.080269870239 0.84396443214 
0.53587006309 -0.077287559419 0.8407555582 0.54291540582 -0.0729851392 0.8366098443 0.55099695453 -0.067306428189 0.83178855536 
0.55944326975 -0.060395584118 0.82666535028 0.56740400949 -0.052757629071 0.82174772442 0.57397971875 -0.045325616207 0.8176141333 
0.57835757348 -0.039473975617 0.81482778698 0.5800542827 -0.036778818977 0.81374710297 0.57902622141 -0.038733867042 0.81438831184 
0.57574308244 -0.046300188584 0.81631868505 0.57104743175 -0.059691604012 0.8187440034 0.56592621378 -0.078439400547 0.82071601727 
0.56131624005 -0.10160892561 0.82134018829 0.55795160864 -0.12828021993 0.81989888864 0.5563690619 -0.15781317838 0.81581153932 
0.5569823746 -0.19025754979 0.80843843249 0.56025387193 -0.22647386048 0.79675917911 0.56687650554 -0.26829850404 0.77888827196 
0.57792729431 -0.31880068443 0.75124308057 0.59484689455 -0.38261790645 0.70693755715 0.61848365326 -0.46508862403 0.63338025107 
0.64581923363 -0.56856111017 0.50956430553 0.66300644505 -0.67958013295 0.31399569539 0.64800283452 -0.75904533321 0.062789398639 