# vtk DataFile Version 4.2
vtk output
ASCII
DATASET POLYDATA
POINTS 128 float
0 0 0 -0.309448 0.14725 0.0526425 -0.911022 0.365348 0.19337 
-1.40888 0.39074 0.396637 -1.80642 0.264364 0.637979 -2.19245 0.0877911 0.895857 
-2.56924 -0.122633 1.16003 -2.92058 -0.370201 1.42333 -3.25133 -0.643905 1.67889 
-3.57343 -0.932586 1.92023 -3.90414 -1.24418 2.14245 -4.25463 -1.58712 2.32571 
-4.59571 -1.94212 2.36963 -4.88964 -2.28268 2.17932 -5.12286 -2.59193 1.82879 
-5.29465 -2.86222 1.43302 -5.42901 -3.11718 1.02887 -5.55325 -3.38644 0.626984 
-5.66815 -3.67673 0.232947 -5.76484 -3.98708 -0.14984 -5.8314 -4.31801 -0.520514 
-5.85483 -4.66952 -0.878782 -5.8222 -5.03461 -1.22196 -5.72261 -5.40366 -1.54673 
-5.55852 -5.76806 -1.85189 -5.33896 -6.12056 -2.13681 -5.07982 -6.46071 -2.39847 
-4.79788 -6.79227 -2.63411 -4.493 -7.12825 -2.85113 -4.16409 -7.48579 -3.05083 
-3.86953 -7.87977 -3.14197 -3.69162 -8.31541 -3.00401 -3.65739 -8.72091 -2.67351 
-3.75925 -8.9992 -2.26271 -3.95164 -9.16722 -1.82617 -4.17811 -9.28572 -1.39021 
-4.42639 -9.36342 -0.962934 -4.70361 -9.38476 -0.545092 -5.00679 -9.33477 -0.146445 
-5.32701 -9.20018 0.218997 -5.64701 -8.97907 0.539096 -5.94638 -8.67698 0.804809 
-6.21487 -8.31352 1.02651 -6.44824 -7.9148 1.22476 -6.6469 -7.49693 1.4176 
-6.81367 -7.07011 1.62118 -6.9483 -6.6427 1.84686 -7.048 -6.22274 2.10384 
-7.10169 -5.82724 2.40899 -7.09349 -5.48061 2.7818 -7.01412 -5.2279 3.21348 
-6.8605 -5.12312 3.67595 -6.65114 -5.16142 4.13784 -6.41761 -5.29883 4.56756 
-6.17345 -5.50143 4.95586 -5.91936 -5.74345 5.30922 -5.65188 -6.0085 5.6397 
-5.36476 -6.28839 5.95842 -5.05245 -6.59716 6.20605 -4.71389 -6.96253 6.27407 
-4.41344 -7.35882 6.13557 -4.25972 -7.72145 5.83393 -4.24574 -8.04997 5.4459 
-4.2868 -8.38733 5.0656 -4.34574 -8.75048 4.72704 -4.42115 -9.13684 4.42056 
-4.5081 -9.54731 4.14521 -4.59842 -9.98566 3.90918 -4.68633 -10.4537 3.74622 
-4.7678 -10.9498 3.70919 -4.83377 -11.442 3.81924 -4.87126 -11.8749 4.06793 
-4.87568 -12.2399 4.41582 -4.84953 -12.5686 4.79951 -4.79216 -12.8828 5.18515 
-4.69989 -13.1947 5.56573 -4.56794 -13.5102 5.9333 -4.39069 -13.8291 6.27831 
-4.16473 -14.1456 6.59595 -3.88903 -14.4484 6.88637 -3.56622 -14.7251 7.15356 
-3.2027 -14.9631 7.40538 -2.80671 -15.153 7.64896 -2.38825 -15.2895 7.89031 
-1.95629 -15.3716 8.13263 -1.51834 -15.403 8.37577 -1.07937 -15.3898 8.61829 
-0.641234 -15.3397 8.85738 -0.204334 -15.2609 9.09046 0.232568 -15.161 9.31536 
0.670716 -15.0472 9.53076 1.1112 -14.925 9.73658 1.55444 -14.7984 9.9336 
1.9999 -14.6692 10.1238 2.44695 -14.538 10.3088 2.89504 -14.4048 10.4899 
3.34397 -14.27 10.6675 3.7942 -14.135 10.8418 4.24658 -14.0031 11.0129 
4.70256 -13.8804 11.1812 5.16357 -13.7752 11.3478 5.63079 -13.6995 11.5146 
6.10274 -13.6704 11.684 6.57234 -13.715 11.8594 7.02279 -13.8557 12.0423 
7.41751 -14.1027 12.2307 7.7275 -14.4506 12.4224 7.94656 -14.8635 12.6166 
8.076 -15.3078 12.8135 8.12724 -15.7658 13.0145 8.11002 -16.2241 13.2196 
8.02656 -16.6751 13.4246 7.87665 -17.1121 13.6222 7.6566 -17.5289 13.7986 
7.36525 -17.9176 13.9359 7.00957 -18.2649 14.0079 6.60281 -18.5608 13.9953 
6.17196 -18.8066 13.9026 5.74121 -19.0091 13.7418 5.31936 -19.1843 13.5347 
4.90964 -19.3516 13.3029 4.50676 -19.5352 13.0628 4.1093 -19.7518 12.8293 
3.73445 -19.9897 12.6163 3.38956 -20.2576 12.442 3.03261 -20.6586 12.3425 
2.66524 -21.2043 12.3345 2.48813 -21.4956 12.3509 
LINES 1 129
128 0 1 2 3 4 5 6 7 8 9 10 11 12 13 14 15 16 17 18 19 20 21 22 23 24 25 26 27 28 29 30 31 32 33 34 35 36 37 38 39 40 41 42 43 44 45 46 47 48 49 50 51 52 53 54 55 56 57 58 59 60 61 62 63 64 65 66 67 68 69 70 71 72 73 74 75 76 77 78 79 80 81 82 83 84 85 86 87 88 89 90 91 92 93 94 95 96 97 98 99 100 101 102 103 104 105 106 107 108 109 110 111 112 113 114 115 116 117 118 119 120 121 122 123 124 125 126 127 

CELL_DATA 1
FIELD FieldData 2
Length 1 1 double
52.248352822 
Tortuosity 1 1 double
1.0969980927 
POINT_DATA 128
SCALARS MaximumInscribedSphereRadius float
LOOKUP_TABLE default
1.116 1.17915 1.24231 1.24896 1.25452 1.39364 1.53582 1.73219 1.93097 
1.6885 1.41492 1.27902 1.15648 1.41414 1.71168 1.7683 1.80199 1.85682 
1.91428 1.89333 1.86024 1.94061 2.04204 2.05229 2.04295 1.94438 1.82398 
1.73425 1.6531 1.73484 1.86863 1.97282 2.06651 2.23867 2.4299 2.4691 
2.46701 2.38843 2.28644 2.1628 2.03185 1.99275 1.98701 2.0317 2.09652 
2.03751 1.9234 1.90149 1.92504 1.98909 2.07483 2.12598 2.15843 2.25418 
2.385 2.50908 2.62908 2.55251 2.34496 2.33317 2.4647 2.58315 2.69422 
2.64147 2.48784 2.41627 2.40023 2.34193 2.25236 2.14589 2.026 2.03351 
2.13975 2.25776 2.3856 2.51031 2.63214 2.56439 2.30706 2.0261 1.71947 
1.55264 1.55095 1.55497 1.56631 1.61417 1.71317 1.82071 1.94138 2.04968 
2.13698 2.21008 2.25645 2.30829 2.37162 2.36534 2.19587 2.08508 2.12897 
2.2031 2.36747 2.48983 2.46974 2.42794 2.30331 2.20149 2.19241 2.16574 
2.06251 1.98729 2.04984 2.11684 2.20923 2.26551 2.08074 1.93482 2.08613 
2.22121 2.21352 2.23158 2.54242 2.8386 2.89297 2.94276 2.87291 2.81197 
3.02419 3.2364 
TEXTURE_COORDINATES TCoords 2 float
0 0 0.00787402 0 0.015748 0 0.023622 0 0.0314961 
0 0.0393701 0 0.0472441 0 0.0551181 0 0.0629921 0 
0.0708661 0 0.0787402 0 0.0866142 0 0.0944882 0 0.102362 
0 0.110236 0 0.11811 0 0.125984 0 0.133858 0 
0.141732 0 0.149606 0 0.15748 0 0.165354 0 0.173228 
0 0.181102 0 0.188976 0 0.19685 0 0.204724 0 
0.212598 0 0.220472 0 0.228346 0 0.23622 0 0.244094 
0 0.251969 0 0.259843 0 0.267717 0 0.275591 0 
0.283465 0 0.291339 0 0.299213 0 0.307087 0 0.314961 
0 0.322835 0 0.330709 0 0.338583 0 0.346457 0 
0.354331 0 0.362205 0 0.370079 0 0.377953 0 0.385827 
0 0.393701 0 0.401575 0 0.409449 0 0.417323 0 
0.425197 0 0.433071 0 0.440945 0 0.448819 0 0.456693 
0 0.464567 0 0.472441 0 0.480315 0 0.488189 0 
0.496063 0 0.503937 0 0.511811 0 0.519685 0 0.527559 
0 0.535433 0 0.543307 0 0.551181 0 0.559055 0 
0.566929 0 0.574803 0 0.582677 0 0.590551 0 0.598425 
0 0.606299 0 0.614173 0 0.622047 0 0.629921 0 
0.637795 0 0.645669 0 0.653543 0 0.661417 0 0.669291 
0 0.677165 0 0.685039 0 0.692913 0 0.700787 0 
0.708661 0 0.716535 0 0.724409 0 0.732283 0 0.740157 
0 0.748031 0 0.755906 0 0.76378 0 0.771654 0 
0.779528 0 0.787402 0 0.795276 0 0.80315 0 0.811024 
0 0.818898 0 0.826772 0 0.834646 0 0.84252 0 
0.850394 0 0.858268 0 0.866142 0 0.874016 0 0.88189 
0 0.889764 0 0.897638 0 0.905512 0 0.913386 0 
0.92126 0 0.929134 0 0.937008 0 0.944882 0 0.952756 
0 0.96063 0 0.968504 0 0.976378 0 0.984252 0 
0.992126 0 1 0 
FIELD FieldData 7
Curvature 1 128 double
0 0.047996108573 0.087453155697 0.12110674838 0.14846800522 0.17134923011 0.19377291795 0.22054530226 0.2547808037 
0.29548417911 0.33630159302 0.36654085665 0.3756567836 0.35979693534 0.32464824168 0.28152816049 0.24102922484 0.20955729137 
0.18912138383 0.17846064966 0.17470438418 0.1750288282 0.17795928833 0.1841803503 0.19694547628 0.22211193261 0.26778903264 
0.34357480385 0.45923624313 0.61890231509 0.80473212648 0.95834780389 1.0042023643 0.92542630188 0.7809685769 0.63520828988 
0.51586633173 0.42406902333 0.3523603779 0.29359816105 0.24351077636 0.20114446797 0.1688619895 0.15244368457 0.15869585247 
0.18909561177 0.23931907927 0.30367830973 0.37548500462 0.44545631866 0.50289625196 0.54063180883 0.55991526574 0.56961817599 
0.58019302077 0.59699807861 0.61579341326 0.62197898283 0.59699345677 0.53201224323 0.436789482 0.33243703755 0.23844215306 
0.16961382781 0.14162731598 0.15959754122 0.20333678127 0.25226983117 0.29307436834 0.3162558594 0.31760310516 0.30027972791 
0.27293094453 0.24503810264 0.22308290689 0.20945099018 0.20313972649 0.2014756668 0.20162026196 0.20142031786 0.19945954593 
0.19500854195 0.1877602906 0.17768055212 0.16505123488 0.15030584226 0.13404840861 0.1169770767 0.09968654143 0.082641815006 
0.066095443285 0.050188679459 0.035069193276 0.022070153615 0.01849871254 0.030776019808 0.050901603436 0.075816179544 0.1055652483 
0.14080137974 0.18209392596 0.22954999362 0.28199231269 0.33638249268 0.38749484376 0.42902477652 0.45594175771 0.46674965195 
0.46381386466 0.45154103465 0.43367698107 0.41195645263 0.38593353399 0.35413356066 0.3154983507 0.27053247322 0.22141810789 
0.17130906484 0.12343240742 0.080720100786 0.046819588462 0.029501117218 0.032719487341 0.039077964361 0.038616073874 0.030197712901 
0.0156004823 0 
Torsion 1 128 double
0 0 -0.1176268642 -0.1734356303 -0.23875062529 -0.30434308086 -0.35043250046 -0.35503268551 -0.31303966318 
-0.24133606636 -0.16141189575 -0.085125797529 -0.013892599585 0.05663093959 0.13175718801 0.2132819008 0.29478753139 0.3596423449 
0.38948054901 0.3836121524 0.36372780773 0.35596399143 0.37536628391 0.42200445313 0.47850058782 0.5125010215 0.49842508487 
0.44010175642 0.36139822217 0.28211465244 0.21171981147 0.152906025 0.10267030316 0.054018521379 0.0017336484779 -0.053182925736 
-0.10652991547 -0.15712618541 -0.20951072743 -0.27402550894 -0.36739706956 -0.51174712651 -0.71536985298 -0.89764217737 -0.87651115611 
-0.67004750951 -0.45862359383 -0.30813438077 -0.20852043784 -0.14141504935 -0.094802011317 -0.062380059531 -0.042242149113 -0.03542638844 
-0.04324258284 -0.06446167146 -0.094499902571 -0.12915759712 -0.16906722285 -0.22181521271 -0.30354175776 -0.44718166967 -0.72192323419 
-1.2013761576 -1.5081912338 -1.0902247316 -0.64501225234 -0.41710002578 -0.31451887622 -0.27594659618 -0.27446423778 -0.29669735633 
-0.33061913499 -0.35827847398 -0.35724625111 -0.31417559373 -0.23737783884 -0.14865794436 -0.066732162814 -0.0010822065471 0.045554633679 
0.073858054761 0.085816213345 0.084509629198 0.073098191201 0.054295352205 0.030297448562 0.0022286726811 -0.030945558146 -0.072712441826 
-0.13272140131 -0.24194851442 -0.50502725317 -1.3195009328 -2.0302698693 -0.83893593994 -0.371725685 -0.21480398914 -0.1495978304 
-0.11865865093 -0.10275830251 -0.094313446157 -0.08906284557 -0.084360121902 -0.078060930395 -0.068084872159 -0.052617665901 -0.030342979575 
-0.0011987091387 0.032671323833 0.067102211223 0.097313713773 0.12025272787 0.13588178601 0.14640223457 0.15644165144 0.17312757462 
0.20818730575 0.28795364596 0.49083272149 1.0744370657 1.9498776811 1.067010076 0.44170287053 0.21442715743 0.1141909101 
0 0 
Abscissas 1 128 double
0 0.50128628294 1.0025725659 1.5038583525 2.0051441295 2.5064309403 3.0077177748 3.5090046561 4.0102915396 
4.5115773175 5.0128630175 5.5141494059 6.0154358611 6.5167228128 7.0180098166 7.5192954758 8.0205810071 8.5218665742 
9.0231521457 9.5244383945 10.025724748 10.527012982 11.028301566 11.52958899 12.030876165 12.532160495 13.03344413 
13.534730049 14.036016608 14.537305242 15.03859454 15.539878704 16.041161047 16.542445268 17.043729945 17.545016706 
18.046304033 18.547590709 19.048877186 19.55016341 20.051449549 20.552736724 21.054024276 21.555311081 22.056597587 
22.55788434 23.059171202 23.560458393 24.061745745 24.563032981 25.064320155 25.56560778 26.066895647 26.568180539 
27.069463783 27.570750247 28.072038658 28.573324984 29.074609921 29.57589751 30.07718704 30.578473975 31.079759449 
31.581045602 32.082332174 32.583617953 33.084903197 33.586187851 34.08747207 34.588755096 35.090037177 35.591331555 
36.092635465 36.593919288 37.095186331 37.59647574 38.097785645 38.599076006 39.100346824 39.601628111 40.102920778 
40.604208796 41.105491325 41.60677745 42.108068191 42.609355858 43.110639215 43.611923919 44.113210691 44.614498108 
45.115786622 45.617072442 46.118353189 46.619641858 47.120947139 47.622244181 48.123521912 48.624800415 49.126080955 
49.627364839 50.128658697 50.62994892 51.13122682 51.632509371 52.13380966 52.635100713 53.136354209 53.637620368 
54.138941682 54.640253854 55.141521057 55.64279023 56.144070642 56.645351443 57.146634837 57.647918624 58.149205413 
58.650493928 59.151797632 59.653098167 60.154362695 60.655629148 61.156927353 61.658224834 62.159503364 62.660782811 
63.162090386 63.663397961 
ParallelTransportNormals 3 128 double
0.20864912926 0 0.97799056277 0.32849230121 -0.017097278068 0.93542660424 0.44833547315 -0.034194556137 0.8928626457 
0.50683378711 -0.017639005663 0.85911921726 0.56415053761 -0.00043526797626 0.82554568108 0.58036400613 0.0094058509635 0.81402219324 
0.59563857672 0.019078789964 0.80300238161 0.58609347879 0.010872017599 0.81000955129 0.57544123912 0.0018676771833 0.81782085836 
0.5013129606 -0.06996999669 0.8544431906 0.42271064896 -0.14623640335 0.89309623369 0.21370791835 -0.37823021475 0.83468083541 
-0.0079605362836 -0.62534974698 0.76683723054 -0.078620873893 -0.71980989727 0.67700158805 -0.13344037013 -0.79825598751 0.58485896771 
-0.13466977332 -0.79790259436 0.5873698327 -0.13080049959 -0.79005204857 0.59888623421 -0.12343891016 -0.76767935913 0.62755350928 
-0.11564307137 -0.74350092476 0.65835339671 -0.11272889154 -0.71993162284 0.68397170186 -0.11057069678 -0.69645665258 0.70878757512 
-0.11232235191 -0.68316842493 0.72140368842 -0.11480021534 -0.671772264 0.73175384087 -0.11682627916 -0.66687403695 0.73593942002 
-0.11875529101 -0.66337164417 0.73880077476 -0.12874256684 -0.65073278153 0.74799900441 -0.14069966186 -0.63586053541 0.7587462647 
-0.19688919506 -0.56812917423 0.79111324949 -0.26545125026 -0.48561227125 0.82952761779 -0.4227942434 -0.16498121357 0.77732033218 
-0.60849623129 0.23170984322 0.69616607816 -0.63128351627 0.51058782927 0.47421957971 -0.59623195921 0.74763919397 0.20228827179 
-0.54440322621 0.82612758324 0.054246443401 -0.48849904611 0.86609846399 -0.063700628821 -0.41984716121 0.88056450411 -0.17655205532 
-0.34773177319 0.8881009756 -0.28801901417 -0.24433828311 0.8572253892 -0.41724281949 -0.13136790776 0.81458860735 -0.55190350461 
-0.024574827313 0.73159073175 -0.66003609798 0.080130408927 0.63495133873 -0.75920254619 0.13497624911 0.56651449381 -0.80955129273 
0.17171824787 0.50831793454 -0.84217443489 0.18102286603 0.49456973514 -0.85006499176 0.17938168284 0.49855365545 -0.84808879171 
0.16988907292 0.53678053592 -0.8241167253 0.15690286821 0.5902442684 -0.79035731111 0.15358835227 0.68027206495 -0.70042025482 
0.15504333877 0.78833108612 -0.58277972219 0.19963345736 0.86695244237 -0.39684713971 0.2673318085 0.92980353496 -0.17432933093 
0.33546698509 0.93109787392 -0.010462085139 0.40383804858 0.89915140404 0.1217337024 0.44833423646 0.86982833776 0.19765148576 
0.47960648786 0.84195833551 0.24239772439 0.50613815411 0.8168686197 0.27403154298 0.52980256469 0.79346050896 0.29773455567 
0.61330061305 0.69907588737 0.32314308757 0.73666932155 0.55739545613 0.3496881069 0.85083602068 0.36347576589 0.2715966776 
0.95826542014 0.13130882675 0.11689512078 0.99588393846 0.0054806715698 0.017944061824 0.99414828527 -0.060401603041 -0.049579021739 
0.99097230647 -0.099097490138 -0.086295759222 0.98690938332 -0.1210521536 -0.10404212306 0.98446281289 -0.13399468846 -0.11325615418 
0.98311002969 -0.14083870846 -0.1166963487 0.981942314 -0.1474309078 -0.11839923467 0.98091161045 -0.15383667527 -0.1188159287 
0.98097254347 -0.15051175473 -0.12212834274 0.98190061513 -0.13945728786 -0.12774096432 0.980948753 -0.11603732253 -0.14966030167 
0.97854001607 -0.083034581964 -0.18421670276 0.9695566608 -0.041658180562 -0.23130694659 0.95508103248 0.0067133693489 -0.2888676517 
0.92857910748 0.064239567082 -0.3537069894 0.89105737901 0.13015425069 -0.4252158034 0.84101809348 0.19661190277 -0.49424243164 
0.77846156125 0.26361250987 -0.56078693565 0.71339460995 0.31930833882 -0.61855157044 0.64559886885 0.36271603478 -0.66677261232 
0.58446960354 0.39404856725 -0.70723367143 0.53121448009 0.41111845879 -0.7385289873 0.48471066521 0.42190877707 -0.76533923085 
0.44687811124 0.42463372289 -0.78638892709 0.41226732774 0.42483829116 -0.80545469182 0.38216941246 0.4215124615 -0.82174148099 
0.35384239792 0.41724612209 -0.83674975337 0.32823842244 0.41153360065 -0.84979210467 0.30503756032 0.40599774214 -0.86129477072 
0.28591679989 0.40076182899 -0.87018329779 0.26946008651 0.39619062766 -0.87768320892 0.25801960664 0.39287103701 -0.88256844333 
0.24789667837 0.3899171457 -0.88683405442 0.24053642958 0.38773006314 -0.88980042178 0.23412838672 0.38583132825 -0.89236034644 
0.22995270304 0.38460859794 -0.89396740362 0.22866403152 0.38415220586 -0.89449249941 0.23498729843 0.38571635235 -0.89216487997 
0.24821808158 0.38783972172 -0.8873474756 0.28205957707 0.3916317056 -0.87510102741 0.32800548625 0.39094333929 -0.85784964566 
0.41499362241 0.37506352672 -0.82362812194 0.50736795729 0.34477398021 -0.78414596832 0.62027878653 0.25954301109 -0.72460608899 
0.72232727144 0.16702926798 -0.66526898316 0.78019893778 0.044896708178 -0.60675655089 0.82875723554 -0.075295525965 -0.54986546491 
0.83675267395 -0.18703698785 -0.50003588855 0.83921700917 -0.29711279854 -0.45095058374 0.8144727045 -0.39899492675 -0.40552650451 
0.78521553631 -0.49909866519 -0.36182530814 0.73020736827 -0.58905467488 -0.32795511061 0.67386805397 -0.67483200377 -0.29770209629 
0.60864622367 -0.73272569572 -0.29158593946 0.54762427215 -0.78578045946 -0.28706165475 0.51873591806 -0.801812209 -0.29471690676 
0.49387747696 -0.81573314963 -0.30105274899 0.50448120463 -0.81107952987 -0.29577813384 0.51730875743 -0.80524725978 -0.2891469412 
0.5554054843 -0.78602206589 -0.2671010505 0.59473248014 -0.76532613912 -0.24463581389 0.65435658025 -0.72036590995 -0.2152521653 
0.71387970877 -0.67454490671 -0.18649501505 0.77076470308 -0.60623403366 -0.17410669712 0.82585325733 -0.54008043232 -0.16210960486 
0.82585325733 -0.54008043232 -0.16210960486 0.82585325733 -0.54008043232 -0.16210960486 
FrenetTangent 3 128 double
-0.90653942334 -0.11057211163 0.40738198545 -0.90653942334 -0.11057211163 0.40738198545 -0.90172469704 -0.14087314892 0.40871423594 
-0.89364663755 -0.18712770912 0.40789570687 -0.88231262944 -0.24580016515 0.40138099451 -0.86815497774 -0.312872491 0.38525022907 
-0.85185574946 -0.38447686432 0.35569554807 -0.83379636477 -0.45728075405 0.3093184994 -0.81337025388 -0.52838575903 0.24338718076 
-0.78850513044 -0.59480757375 0.15640846999 -0.75578925519 -0.65295835605 0.04927460817 -0.71153298911 -0.69881579788 -0.07332998047 
-0.65361619816 -0.72923525688 -0.20248902594 -0.58300000193 -0.74379704389 -0.32692041118 -0.50348230573 -0.7455567084 -0.43663573191 
-0.41976057922 -0.73981616274 -0.52580709531 -0.33546799078 -0.73196419484 -0.59303426937 -0.25245265546 -0.72595875233 -0.63972771291 
-0.17117964961 -0.72394364825 -0.66828371349 -0.091559527099 -0.72658928133 -0.68094410141 -0.013681629469 -0.73367871452 -0.67935878362 
0.061751310223 -0.74468092795 -0.66455781632 0.13330495245 -0.75920403816 -0.63705495689 0.19895158752 -0.77726606072 -0.59688837875 
0.25629686056 -0.79933266451 -0.54348800421 0.30268864925 -0.82607219242 -0.47537807536 0.33506292273 -0.85778437586 -0.38979328156 
0.34943966086 -0.8933853548 -0.28240844755 0.3402263288 -0.92867582886 -0.14767278043 0.29996016635 -0.95375959352 0.019145139635 
0.22117894463 -0.95090444587 0.21647311444 0.10266158079 -0.89787994589 0.42810302803 -0.042579669212 -0.78217798875 0.62159839582 
-0.18929995126 -0.61543802786 0.7651153915 -0.31505420042 -0.42615066656 0.84801913905 -0.41029452108 -0.23910833455 0.88004864088 
-0.47535819693 -0.066747450548 0.87725672551 -0.51408817346 0.08715542737 0.85329788549 -0.53050651539 0.22218997505 0.81804306251 
-0.52807864323 0.33857833714 0.7787795941 -0.50985150203 0.43644256573 0.74132943601 -0.47856184455 0.51587544241 0.71052873894 
-0.43651455377 0.57704905259 0.69026765479 -0.38535782316 0.62006893481 0.6833841264 -0.32589791603 0.64462965313 0.6915512697 
-0.25809737401 0.6496099585 0.7151172263 -0.18133585493 0.63280765917 0.75277604519 -0.094973536474 0.59106991107 0.80100960518 
0.00073916986538 0.52111981357 0.85348321222 0.10360562619 0.42126287318 0.90100136842 0.20891607282 0.29346312772 0.93286304846 
0.31013390242 0.14428446813 0.93968024073 0.4007680324 -0.016660788631 0.91602805761 0.47602313371 -0.17995869592 0.86082335234 
0.53288003526 -0.33871624553 0.77544192112 0.56884030688 -0.48833652131 0.66177650852 0.58074865325 -0.62444183662 0.52230584377 
0.5652047824 -0.74103706469 0.3625018934 0.52111257778 -0.83123221419 0.19363544969 0.4526919503 -0.89108180305 0.03229889173 
0.36953995072 -0.9232720574 -0.1049234619 0.28290573359 -0.93644650794 -0.20744224178 0.20164855801 -0.94089940317 -0.27211426308 
0.13087607519 -0.94474940903 -0.30053287189 0.07285242188 -0.95248190285 -0.29575454242 0.028464266671 -0.96504128027 -0.26054771712 
-0.0017129636919 -0.98034193249 -0.1972986598 -0.016976202736 -0.9938890579 -0.10907038615 -0.016660455939 -0.99986056307 -0.0011329759171 
-0.00071599342962 -0.9929991837 0.11811904391 0.029743604873 -0.97080631261 0.23801348989 0.07244915189 -0.93460374256 0.34823406608 
0.12462543479 -0.88853858811 0.44155144484 0.18375677247 -0.83735758482 0.5148453396 0.24792995899 -0.78457598968 0.56830559723 
0.31570764199 -0.73180975948 0.60397281456 0.38579630897 -0.67901874341 0.62457565921 0.45674875344 -0.62514781041 0.63290662137 
0.52682681195 -0.56881172166 0.63159063919 0.594055888 -0.50886203568 0.62302249605 0.65641828429 -0.44478240233 0.60933049376 
0.71211691713 -0.37687668199 0.59232884693 0.75983036314 -0.30624660125 0.57347261353 0.79888352597 -0.23462090825 0.55383945449 
0.82930971126 -0.16405906637 0.53416292042 0.85178716442 -0.096633097842 0.51489869969 0.86747400938 -0.034170215796 0.49630760563 
0.87779436372 0.02193048173 0.47853537905 0.88422056694 0.070749857729 0.46168002624 0.88811081723 0.11178770181 0.44582809023 
0.89060700778 0.14484756028 0.43108971453 0.8925968151 0.16989717849 0.41761929362 0.89472913381 0.18691355715 0.40561447122 
0.89743647379 0.19575680751 0.39533156694 0.90095523601 0.19607925398 0.38708214744 0.90531967517 0.18726734039 0.38121808584 
0.9103045489 0.16842025459 0.37812728821 0.91532220443 0.13836969942 0.37820508769 0.91927102726 0.095749671029 0.38180201537 
0.92034198619 0.039125118528 0.38915273807 0.91581609521 -0.032746135135 0.40026062808 0.90193292356 -0.12049069925 0.41472761277 
0.87396803613 -0.22347422259 0.43155433454 0.82674388579 -0.33901372835 0.44895906194 0.75574114628 -0.46177435272 0.46434875577 
0.65865931025 -0.58388725609 0.47459834091 0.53673147496 -0.69623585085 0.47662874837 0.39487503154 -0.7905739751 0.46804540309 
0.24043229943 -0.86137582597 0.44746396037 0.081296321449 -0.90645150599 0.41441111883 -0.075416674501 -0.9263359965 0.36907173666 
-0.2237367523 -0.92328871971 0.31221756152 -0.35865399601 -0.90063133184 0.24541906051 -0.47600964627 -0.86258970384 0.17132956398 
-0.57280640411 -0.81431600598 0.093713743991 -0.64776687512 -0.7616479544 0.017043153056 -0.70164057764 -0.71046029756 -0.054283196306 
-0.73692493194 -0.66582304836 -0.11671038068 -0.75711486701 -0.63132372468 -0.16795068566 -0.76586042475 -0.60877621584 -0.20700079427 
-0.76637322156 -0.5982797043 -0.23395187691 -0.76122881573 -0.59844600596 -0.24978604455 -0.75248469714 -0.60671538393 -0.25624836286 
-0.7419244476 -0.61979370673 -0.25574181344 -0.73128255808 -0.63416061896 -0.25112970674 -0.72227417989 -0.64661983653 -0.24536258085 
-0.71640191682 -0.65475115949 -0.24097554384 -0.71640191682 -0.65475115949 -0.24097554384 
FrenetNormal 3 128 double
0.15234937865 -0.98573919159 0.071469664785 0.15234937865 -0.98573919159 0.071469664785 0.16535222486 -0.98591797746 0.024987665966 
0.18228907556 -0.98191644883 -0.051095796858 0.19772028501 -0.96746795495 -0.15783676708 0.20649225188 -0.93358964402 -0.29286742136 
0.20700149781 -0.87093892282 -0.44566329512 0.20443821283 -0.77620315568 -0.59641736917 0.21002694323 -0.65687085789 -0.72416114171 
0.2349154918 -0.52630364233 -0.81720204832 0.28412407803 -0.39480405224 -0.87372951685 0.35556825349 -0.26808272839 -0.89537861704 
0.44245474578 -0.1511200972 -0.88396635352 0.53712772655 -0.050942889609 -0.84196117925 0.63429398642 0.024194558474 -0.77271324703 
0.73158015699 0.067101506144 -0.67844517963 0.82610548652 0.073991057862 -0.55863677689 0.90985875316 0.046887166326 -0.41226040669 
0.96977301751 -0.0040903894804 -0.24397451347 0.99578601968 -0.063233974053 -0.066420384871 0.9872022697 -0.11787154574 0.10741497754 
0.94805956388 -0.16439990822 0.27231550364 0.87899531449 -0.20636283304 0.42986232476 0.77461544147 -0.24837233751 0.58162023675 
0.62778032747 -0.28988681752 0.72239704697 0.44044828549 -0.3210825427 0.83839806094 0.23185130758 -0.32592208274 0.9165259228 
0.028910544273 -0.2909853521 0.95629059668 -0.15116150765 -0.20901220028 0.96615945824 -0.30427219137 -0.07663490379 0.94949751189 
-0.42870734016 0.10456962185 0.89737127806 -0.51662881056 0.31964870398 0.79430433597 -0.55630479604 0.53535452285 0.63554740875 
-0.54387546099 0.71447495267 0.44014205087 -0.48838371768 0.83893553588 0.24014268872 -0.40337831074 0.91306298256 0.060016067101 
-0.29895974234 0.95003940461 -0.089711772627 -0.18055532094 0.96153767288 -0.20699053047 -0.05018556383 0.95511142838 -0.29196501257 
0.093214452542 0.93464898784 -0.34313603041 0.25443017787 0.8996985226 -0.35469402732 0.44133924955 0.84088364928 -0.31326403431 
0.65432912848 0.73019578982 -0.19664053536 0.85237337134 0.52289693317 0.0061994453311 0.94540264799 0.22383433896 0.23687976247 
0.91630741981 -0.070011515398 0.39430838201 0.84073224326 -0.29735673579 0.45249117873 0.7683694786 -0.46806414457 0.43649089442 
0.70770411929 -0.60326612234 0.36772933686 0.65209662165 -0.71278495823 0.25827814341 0.59304231728 -0.79651368813 0.11775718464 
0.52464120033 -0.85025694437 -0.042599759046 0.44451189107 -0.87073378154 -0.21031371894 0.35209766145 -0.85796382276 -0.3740659242 
0.24679042551 -0.81434212655 -0.52530123435 0.12745270138 -0.74258098513 -0.65751752024 -0.0059249385434 -0.64481312332 -0.7643172974 
-0.14985683951 -0.52434028181 -0.83821846587 -0.29710532284 -0.38935819663 -0.87185355528 -0.43992857951 -0.25470887866 -0.86115401181 
-0.57597013499 -0.13898490027 -0.80556911628 -0.7114356715 -0.059819806615 -0.70020059701 -0.85595875491 -0.034240238242 -0.51590911601 
-0.98171759214 -0.081239409753 -0.17213578243 -0.91322041885 -0.18290776642 0.36410604992 -0.58481154454 -0.22746671809 0.77862336822 
-0.28053061844 -0.18890530776 0.94107245036 -0.07506351709 -0.10751138714 0.99136611302 0.071050522011 -0.0023141662978 0.99747003361 
0.18842653571 0.11586927236 0.97522805146 0.29373953616 0.23609415403 0.92627028201 0.39622504686 0.34738764635 0.84989854418 
0.50005242285 0.44061761731 0.74552242737 0.60274378835 0.50972713955 0.61390403876 0.69386268342 0.55319512186 0.46100947246 
0.75946360105 0.57646735722 0.30149697302 0.79147337986 0.59145299025 0.15412089186 0.79128502661 0.61060561563 0.032074738082 
0.76518390416 0.64091013067 -0.061055689451 0.71924882395 0.68284323492 -0.12808686804 0.65811972723 0.7324554132 -0.17432008574 
0.58568871033 0.78412470189 -0.2052247219 0.50600033358 0.83242624042 -0.22589868677 0.42347876097 0.87328940423 -0.24089698101 
0.3424798863 0.90457010058 -0.25389064697 0.2670125883 0.92568191611 -0.26798743979 0.20031103127 0.93718377983 -0.2855907099 
0.14480829605 0.94006885484 -0.30870877141 0.10228958503 0.93513239597 -0.33921120677 0.074823389801 0.92187138606 -0.38020337703 
0.065070281382 0.89758066061 -0.43602157766 0.079638900099 0.85230179526 -0.51695192754 0.13652105552 0.75026983308 -0.64688266244 
0.2832840652 0.43123418269 -0.85661380918 0.43350491882 -0.44538280191 -0.78339494836 0.31393734022 -0.89958272599 -0.3036350861 
0.20771981536 -0.97600318226 -0.0653472763 0.13005915957 -0.99036453579 0.047567859526 0.058319792989 -0.99238894294 0.10845730809 
-0.018010394307 -0.98968888178 0.14209694925 -0.10419536963 -0.9819147923 0.15807171037 -0.20256855025 -0.96613395732 0.15984729886 
-0.31332291141 -0.93790895543 0.14884738664 -0.43382688771 -0.8922665362 0.12511858327 -0.55856346395 -0.82467593368 0.088974497131 
-0.67921661427 -0.7327859426 0.041104175177 -0.7862210168 -0.6177125857 -0.016960961172 -0.87090011243 -0.48434091151 -0.083347919016 
-0.92734319306 -0.34002241277 -0.1562669546 -0.95289731967 -0.19258154618 -0.234305455 -0.94760390837 -0.048642339609 -0.31572259285 
-0.91328666407 0.086734299376 -0.39797566578 -0.85330851023 0.20972808451 -0.47736643884 -0.77247430201 0.31698320689 -0.55027729309 
-0.67698484542 0.40552077958 -0.61420226017 -0.57360280185 0.47287125644 -0.66885917841 -0.46782713701 0.51680054111 -0.7169762692 
-0.36164803637 0.53420346791 -0.76409250269 -0.24974312944 0.51726883593 -0.8185727339 -0.10976754692 0.44098070702 -0.89077892974 
0.1292114466 0.21318123237 -0.9684307741 0.53296442785 -0.35791783859 -0.76670968396 0.65090232578 -0.7444305012 -0.14882671527 
0.59391601387 -0.78451994963 0.17830372148 0.55543984776 -0.76736942415 0.32036033213 0.53738906633 -0.74803483253 0.38943148397 
0.5306071268 -0.73557632773 0.42116925703 0.5306071268 -0.73557632773 0.42116925703 
FrenetBinormal 3 128 double
0.39366983725 0.12685446106 0.91045703081 0.39366983725 0.12685446106 0.91045703081 0.39943862167 0.090113803767 0.91232027813 
0.41008094339 0.028693344275 0.91159766995 0.42711955333 -0.059900208357 0.90220887393 0.45129578387 -0.17470312233 0.87510624184 
0.48113632374 -0.30601132906 0.82150161562 0.51282417964 -0.43405411309 0.74068102965 0.54251038075 -0.53789326609 0.64525446226 
0.56839631507 -0.60762523506 0.55472263586 0.58996280393 -0.64635527816 0.48390985149 0.60604622144 -0.66316523685 0.43922641782 
0.6140192696 -0.66736695778 0.4214281436 0.60959396578 -0.66646138635 0.42921371994 0.58666575374 -0.66600286628 0.46072060459 
0.53720715747 -0.66945457891 0.5130682574 0.45278135154 -0.67731362074 0.57985800577 0.32927907016 -0.68613809364 0.6486831356 
0.17389025869 -0.68984698512 0.70276120771 0.0052015380689 -0.6841560354 0.72931712117 -0.15888515258 -0.66919492121 0.72590196702 
-0.31204140595 -0.64685623265 0.69584996605 -0.45781767852 -0.61727109893 0.63982760464 -0.60032423212 -0.57807322444 0.55266822192 
-0.73498556429 -0.52633917248 0.42750824063 -0.84521292549 -0.46315303485 0.2666540397 -0.9132238548 -0.39746793647 0.089674023542 