# vtk DataFile Version 4.2
vtk output
ASCII
DATASET POLYDATA
POINTS 128 float
0 0 0 -0.305784 -0.143924 -0.0293474 -0.87095 -0.472674 -0.0939277 
-1.25992 -0.852408 -0.162084 -1.50549 -1.25384 -0.22003 -1.7549 -1.67854 -0.260495 
-2.0115 -2.11898 -0.280054 -2.24687 -2.5661 -0.277347 -2.46705 -3.01519 -0.255863 
-2.68487 -3.46468 -0.223911 -2.89608 -3.92203 -0.206774 -3.08731 -4.3934 -0.236041 
-3.22495 -4.86299 -0.348635 -3.27514 -5.30878 -0.572815 -3.23982 -5.71473 -0.87891 
-3.13387 -6.07048 -1.22144 -2.97541 -6.38656 -1.57883 -2.78205 -6.67905 -1.93923 
-2.56159 -6.9533 -2.29838 -2.31828 -7.21072 -2.65506 -2.05695 -7.45297 -3.00961 
-1.78278 -7.68209 -3.36303 -1.50164 -7.9019 -3.71689 -1.2196 -8.11711 -4.07282 
-0.942023 -8.33368 -4.43141 -0.673624 -8.55786 -4.79258 -0.416739 -8.7939 -5.15435 
-0.172473 -9.04514 -5.51402 0.0591332 -9.31455 -5.86977 0.278392 -9.60477 -6.21955 
0.484266 -9.91667 -6.55539 0.675428 -10.2516 -6.86751 0.854171 -10.6234 -7.15671 
1.02235 -11.0494 -7.41936 1.15893 -11.5154 -7.55433 1.2327 -11.9847 -7.42411 
1.23723 -12.3695 -7.06454 1.18111 -12.5699 -6.60241 1.08115 -12.6208 -6.10649 
0.956314 -12.6166 -5.61379 0.808423 -12.5828 -5.13635 0.630483 -12.5082 -4.67345 
0.42017 -12.3921 -4.23039 0.178389 -12.2394 -3.81554 -0.0884358 -12.0502 -3.43324 
-0.370325 -11.822 -3.08491 -0.653907 -11.5553 -2.76609 -0.924005 -11.2527 -2.46856 
-1.16861 -10.9193 -2.18236 -1.37808 -10.5618 -1.89647 -1.54654 -10.1911 -1.60098 
-1.67069 -9.82047 -1.28638 -1.74787 -9.46509 -0.93876 -1.77612 -9.14397 -0.541902 
-1.75719 -8.91198 -0.0917413 -1.69659 -8.84679 0.403906 -1.61398 -8.96769 0.896223 
-1.53846 -9.24731 1.30955 -1.48023 -9.63612 1.62943 -1.43533 -10.0712 1.88659 
-1.39953 -10.5225 2.10329 -1.36882 -10.9854 2.29402 -1.34217 -11.4565 2.46781 
-1.32104 -11.9324 2.62913 -1.30913 -12.4124 2.77725 -1.31183 -12.8983 2.90698 
-1.33228 -13.3903 3.00936 -1.37117 -13.8874 3.07265 -1.42151 -14.3876 3.09272 
-1.46908 -14.8878 3.07313 -1.49742 -15.3875 3.02612 -1.4884 -15.888 2.97218 
-1.4281 -16.3864 2.93135 -1.3074 -16.8747 2.92257 -1.12669 -17.3441 2.95711 
-0.896444 -17.7849 3.03785 -0.628368 -18.192 3.16389 -0.33492 -18.5656 3.33057 
-0.0260635 -18.9066 3.53419 0.291251 -19.2158 3.77252 0.610998 -19.4931 4.04445 
0.928082 -19.7366 4.35018 1.23766 -19.943 4.68914 1.53531 -20.1075 5.05961 
1.82312 -20.2258 5.4549 2.11214 -20.2952 5.86159 2.41691 -20.317 6.26188 
2.75582 -20.2989 6.63253 3.13631 -20.2503 6.95884 3.54896 -20.1829 7.23953 
3.98313 -20.1045 7.48053 4.42836 -20.0172 7.69731 4.87549 -19.9203 7.90514 
5.31743 -19.8094 8.11758 5.74642 -19.6797 8.34599 6.15325 -19.5262 8.59815 
6.53138 -19.3462 8.87701 6.87939 -19.1422 9.17737 7.2011 -18.9187 9.49223 
7.5092 -18.6839 9.81289 7.81717 -18.4468 10.1315 8.13816 -18.2172 10.4426 
8.481 -18.0048 10.7429 8.84562 -17.8174 11.034 9.22895 -17.6612 11.3195 
9.62378 -17.5393 11.6063 10.022 -17.4542 11.9016 10.4147 -17.4083 12.2123 
10.7913 -17.4061 12.5457 11.1366 -17.4568 12.9107 11.4293 -17.5714 13.3098 
11.6326 -17.7626 13.7281 11.7216 -18.0336 14.1453 11.7087 -18.3607 14.5334 
11.6163 -18.7191 14.8745 11.4758 -19.0939 15.1803 11.3146 -19.4746 15.4662 
11.1423 -19.857 15.743 10.965 -20.2384 16.0191 10.7869 -20.6149 16.2988 
10.6128 -20.9846 16.5873 10.45 -21.3515 16.895 10.3046 -21.7157 17.2254 
10.1761 -22.0582 17.5532 10.0688 -22.3768 17.8743 10.0076 -22.7453 18.2842 
10.0047 -23.1681 18.7894 10.016 -23.3796 19.0486 
LINES 1 129
128 0 1 2 3 4 5 6 7 8 9 10 11 12 13 14 15 16 17 18 19 20 21 22 23 24 25 26 27 28 29 30 31 32 33 34 35 36 37 38 39 40 41 42 43 44 45 46 47 48 49 50 51 52 53 54 55 56 57 58 59 60 61 62 63 64 65 66 67 68 69 70 71 72 73 74 75 76 77 78 79 80 81 82 83 84 85 86 87 88 89 90 91 92 93 94 95 96 97 98 99 100 101 102 103 104 105 106 107 108 109 110 111 112 113 114 115 116 117 118 119 120 121 122 123 124 125 126 127 

CELL_DATA 1
FIELD FieldData 2
Length 1 1 double
56.071996453 
Tortuosity 1 1 double
0.76454886513 
POINT_DATA 128
SCALARS MaximumInscribedSphereRadius float
LOOKUP_TABLE default
1.55 1.34007 1.13014 1.02685 0.93254 0.962408 0.995713 1.0864 1.18054 
1.21125 1.23683 1.15824 1.06885 1.06721 1.07629 1.14794 1.22786 1.2397 
1.24105 1.24964 1.25952 1.26367 1.26665 1.26161 1.2547 1.26689 1.2841 
1.37044 1.47709 1.62033 1.77548 1.72116 1.59104 1.43896 1.27843 1.17693 
1.09877 1.0687 1.0533 1.1174 1.21083 1.23832 1.23961 1.24 1.24 
1.24545 1.25344 1.31812 1.41155 1.44311 1.4407 1.38433 1.29593 1.26318 
1.26581 1.26168 1.25309 1.2468 1.24196 1.26623 1.31024 1.36931 1.43937 
1.43874 1.38233 1.32532 1.26781 1.2544 1.28137 1.33758 1.42254 1.4355 
1.37216 1.3156 1.26672 1.24 1.24 1.24 1.24 1.24278 1.24943 
1.27896 1.3427 1.45252 1.63647 1.71026 1.59331 1.4811 1.37773 1.298 
1.26583 1.24317 1.24131 1.24 1.24 1.24 1.24 1.24393 1.25909 
1.29353 1.38898 1.48673 1.59262 1.68246 1.70924 1.69998 1.53143 1.39107 
1.39182 1.39526 1.41404 1.4231 1.37072 1.33577 1.41748 1.4816 1.40708 
1.33511 1.28764 1.24529 1.26586 1.30173 1.59127 1.87484 1.9125 1.93064 
1.74032 1.55 
TEXTURE_COORDINATES TCoords 2 float
0 0 0.00787402 0 0.015748 0 0.023622 0 0.0314961 
0 0.0393701 0 0.0472441 0 0.0551181 0 0.0629921 0 
0.0708661 0 0.0787402 0 0.0866142 0 0.0944882 0 0.102362 
0 0.110236 0 0.11811 0 0.125984 0 0.133858 0 
0.141732 0 0.149606 0 0.15748 0 0.165354 0 0.173228 
0 0.181102 0 0.188976 0 0.19685 0 0.204724 0 
0.212598 0 0.220472 0 0.228346 0 0.23622 0 0.244094 
0 0.251969 0 0.259843 0 0.267717 0 0.275591 0 
0.283465 0 0.291339 0 0.299213 0 0.307087 0 0.314961 
0 0.322835 0 0.330709 0 0.338583 0 0.346457 0 
0.354331 0 0.362205 0 0.370079 0 0.377953 0 0.385827 
0 0.393701 0 0.401575 0 0.409449 0 0.417323 0 
0.425197 0 0.433071 0 0.440945 0 0.448819 0 0.456693 
0 0.464567 0 0.472441 0 0.480315 0 0.488189 0 
0.496063 0 0.503937 0 0.511811 0 0.519685 0 0.527559 
0 0.535433 0 0.543307 0 0.551181 0 0.559055 0 
0.566929 0 0.574803 0 0.582677 0 0.590551 0 0.598425 
0 0.606299 0 0.614173 0 0.622047 0 0.629921 0 
0.637795 0 0.645669 0 0.653543 0 0.661417 0 0.669291 
0 0.677165 0 0.685039 0 0.692913 0 0.700787 0 
0.708661 0 0.716535 0 0.724409 0 0.732283 0 0.740157 
0 0.748031 0 0.755906 0 0.76378 0 0.771654 0 
0.779528 0 0.787402 0 0.795276 0 0.80315 0 0.811024 
0 0.818898 0 0.826772 0 0.834646 0 0.84252 0 
0.850394 0 0.858268 0 0.866142 0 0.874016 0 0.88189 
0 0.889764 0 0.897638 0 0.905512 0 0.913386 0 
0.92126 0 0.929134 0 0.937008 0 0.944882 0 0.952756 
0 0.96063 0 0.968504 0 0.976378 0 0.984252 0 
0.992126 0 1 0 
FIELD FieldData 7
Curvature 1 128 double
0 0.02803587082 0.05120233148 0.071349441556 0.0885629806 0.10414319777 0.12033566266 0.13955551558 0.16331986359 
0.19139893375 0.22139585564 0.24883861149 0.26809180298 0.27425911978 0.26539095324 0.24334799133 0.21259697791 0.17799245688 
0.14320588857 0.11030476525 0.080130914537 0.052883724493 0.029215729191 0.016380158842 0.02958194343 0.052049720278 0.078157353375 
0.10939975544 0.14935871437 0.20401717132 0.28323378173 0.40243257918 0.58203922209 0.83315448491 1.1099101199 1.2661042948 
1.1807934077 0.93653934983 0.68923076394 0.50451953315 0.37954609498 0.29508346906 0.23498035466 0.1886642101 0.15000413373 
0.11603520023 0.0870848552 0.069542145538 0.07701264708 0.11204655743 0.16715428793 0.23973847252 0.32856658521 0.42669678512 
0.51538325764 0.56643145167 0.56020643916 0.50353503361 0.42276555108 0.34239845121 0.27463360617 0.22171892921 0.18137547337 
0.15017053989 0.12507588324 0.10409339529 0.086731439551 0.074580650731 0.071257670612 0.079323035049 0.096852215552 0.11966330263 
0.14412896254 0.16745640153 0.18750784739 0.2028260961 0.21268373223 0.21707081395 0.21651949744 0.21183905387 0.20404689416 
0.19416769608 0.18341139826 0.17271862663 0.16277054346 0.15365419536 0.14478285658 0.13535614384 0.12476504032 0.1128564684 
0.1003761134 0.088352447794 0.077783160022 0.068976813323 0.061227388962 0.053250221352 0.044051898411 0.033884768629 0.02606707769 
0.028379910967 0.042135870553 0.06175181157 0.084788511698 0.11091053778 0.14079173753 0.17504392874 0.21393546187 0.25607434499 
0.29752143666 0.3314822138 0.34945591353 0.34527740111 0.31864153859 0.27553977568 0.22467430226 0.17332853323 0.12594831408 
0.084412117966 0.049233291511 0.020575981385 0.0054267419152 0.019614865681 0.029253084353 0.032569046107 0.029942166673 0.022339713394 
0.011270148282 0 
Torsion 1 128 double
0 0 -0.095537710917 -0.14049785939 -0.19050724055 -0.23578135071 -0.26131817197 -0.25572381268 -0.22140523059 
-0.17217374191 -0.12202935267 -0.078740752615 -0.044426775081 -0.018383513452 0.0009237758732 0.015125858436 0.025702721328 0.034446718384 
0.044765491081 0.06430773207 0.11369002858 0.2662824897 0.91685172356 2.935374914 0.80224412414 0.17225045078 0.0019665069408 
-0.063965855956 -0.091914872931 -0.10045139087 -0.096642280933 -0.0838478343 -0.063983820186 -0.039917906464 -0.015807171457 0.0053825049528 
0.024187343474 0.039612576039 0.045464875596 0.035732660831 0.0088227744398 -0.033643640543 -0.090791350863 -0.1670184064 -0.279253199 
-0.47412797365 -0.86089522443 -1.4470200004 -1.3685464085 -0.82202287179 -0.5086919586 -0.35716953891 -0.27557677253 -0.22542404239 
-0.19158997733 -0.16819986778 -0.15194562883 -0.1393572388 -0.12667153831 -0.11027126874 -0.08663122415 -0.052125442331 -0.0029557126981 
0.065421787792 0.16045082671 0.29635650929 0.49259483783 0.73401470736 0.86926745815 0.75524191103 0.54685392404 0.38757459161 
0.28749551455 0.2247513498 0.18179383578 0.14749757792 0.11481739023 0.079191238209 0.038228198391 -0.0086172579468 -0.06001631095 
-0.11261752273 -0.16066924063 -0.19636561078 -0.21141091498 -0.20043717561 -0.16388701152 -0.10596230777 -0.032212468091 0.053379317447 
0.14689815267 0.23836104853 0.31104381074 0.34951118078 0.3587949034 0.37316352531 0.45707155 0.74252439754 1.3419865112 
1.2135575852 0.5293844136 0.18142282719 0.021120870774 -0.059549001425 -0.099340247913 -0.1143231242 -0.1133524837 -0.10310420325 
-0.088505964247 -0.073074795192 -0.059177580937 -0.047927123481 -0.039818702176 -0.034926797366 -0.033624241946 -0.036919842895 -0.047027847943 
-0.072404357972 -0.15016271672 -0.6160796806 -6.4110471468 -0.35219421163 -0.10831898187 -0.053337164852 -0.030424955035 -0.017896999097 
0 0 
Abscissas 1 128 double
0 0.50253443587 1.0050688717 1.5076051893 2.0101416651 2.512674944 3.0152081344 3.5177402639 4.0202723296 
4.5228096744 5.0253474473 5.5278790744 6.0304100639 6.5329444961 7.0354793488 7.5380159483 8.0405527787 8.5430833169 
9.0456128872 9.5481501722 10.050688838 10.553221743 11.055753465 11.558289131 12.06082572 12.56335922 13.065891906 
13.568424807 14.070957772 14.573497695 15.076039885 15.578579151 16.08111736 16.583639341 17.086155067 17.588682181 
18.091213796 18.593752167 19.0962926 19.59882983 20.10136588 20.603901835 21.106437752 21.608975404 22.111513805 
22.614042226 23.116565981 23.619109733 24.121663628 24.624204044 25.12673706 25.629263662 26.131786457 26.634316315 
27.13685066 27.639386169 28.141922449 28.6444571 29.146990731 29.649537341 30.152092754 30.65462841 31.157149635 
31.659676439 32.162207645 32.664747341 33.167294262 33.669836579 34.172374681 34.674891563 35.177387586 35.679915182 
36.182476239 36.685016448 37.187533035 37.69005504 38.192583582 38.695117612 39.197658736 39.700192715 40.202716772 
40.705249848 41.207796408 41.71033878 42.212874416 42.715409541 43.217943783 43.720478639 44.223014643 44.725548802 
45.228079252 45.730610552 46.233143713 46.735678609 47.23821766 47.740752401 48.243275864 48.745801951 49.248335553 
49.750870083 50.253407554 50.755945274 51.258483871 51.761018789 52.263539256 52.766063418 53.268603909 53.771142214 
54.273669578 54.776200768 55.278753769 55.781299336 56.283797903 56.786300883 57.288833396 57.791370177 58.293940569 
58.796504703 59.29900845 59.801514173 60.304044217 60.806575686 61.309130768 61.811684966 62.314202734 62.816721882 
63.319255752 63.821789623 
ParallelTransportNormals 3 128 double
-0.10853621248 0 0.99409249599 -0.1298053628 -0.018031626907 0.99094747365 -0.15107451311 -0.036063253814 0.98780245131 
-0.13890188946 -0.017160072382 0.98981534991 -0.12391474691 0.004851607894 0.99226234826 -0.1057950131 0.037978080485 0.99291213814 
-0.087588563598 0.071412230271 0.99351217809 -0.083228605928 0.0801208278 0.99327137822 -0.079700442838 0.08734409745 0.99298006692 
-0.11638410487 -0.0037733987233 0.98734597103 -0.15632949842 -0.10286768217 0.98127850191 -0.19316327261 -0.30048199577 0.90599790839 
-0.22967427691 -0.5083158431 0.82353780164 -0.21537779266 -0.62867580251 0.73328951509 -0.1948745687 -0.73834978493 0.64208980965 
-0.17517380715 -0.7814738343 0.59620045189 -0.15557909623 -0.81580287692 0.55629915145 -0.14033248983 -0.83470484367 0.53159215762 
-0.12575477295 -0.85123359029 0.50922257593 -0.11326923277 -0.86279109789 0.49218513441 -0.10115821103 -0.87345870902 0.47610219393 
-0.095618173755 -0.87801470578 0.46892546054 -0.091428917222 -0.88131435335 0.46357955375 -0.096850536486 -0.87676001457 0.47086268066 
-0.1045184244 -0.87037003003 0.48109748471 -0.11871259754 -0.85638034904 0.50150563008 -0.1346250071 -0.84038982459 0.52459220657 
-0.15448370417 -0.8158569556 0.5552828721 -0.17550247183 -0.78881293589 0.58820887402 -0.2028521777 -0.74408719879 0.63226238505 
-0.23226441414 -0.69360100704 0.67994108193 -0.28043435547 -0.57799713976 0.74883900417 -0.33539215009 -0.43882913013 0.82541553046 
-0.4119706563 -0.078649557194 0.7927939869 -0.49688174613 0.36670747729 0.71808770235 -0.50173092731 0.6349818895 0.47075570128 
-0.47493495438 0.83326288083 0.15519190943 -0.44574736532 0.88597606396 -0.014390775389 -0.41583018423 0.89428198932 -0.13944012052 
-0.38214949222 0.88653960104 -0.24169580186 -0.34708055574 0.87287747894 -0.33554359529 -0.30203435017 0.84714883337 -0.42520253811 
-0.25302435341 0.81662637308 -0.51319732524 -0.19978199524 0.77614375501 -0.59012816632 -0.14471331048 0.73136318147 -0.66228475097 
-0.10248143372 0.68971680228 -0.713810871 -0.06625316524 0.64953624504 -0.75568839084 -0.049500972978 0.62848556873 -0.77609023894 
-0.042626444126 0.61713697628 -0.78560029062 -0.048502014247 0.63657699274 -0.7682356104 -0.061377704284 0.67292071755 -0.73611603719 
-0.073274445949 0.74717154343 -0.64308198042 -0.084590057264 0.84392505441 -0.51388743123 -0.069082543292 0.91120296224 -0.26110111831 
-0.036531620237 0.95975207702 0.070215379515 0.0038720064859 0.88573226098 0.36460119769 0.049469286146 0.73064730936 0.63456165348 
0.075135695095 0.60248437769 0.78463121396 0.088332868113 0.4911645144 0.85969412364 0.095578489622 0.41858977311 0.90193368803 
0.098787325462 0.37229486036 0.92191001404 0.10080359609 0.33645237757 0.93589419863 0.10194872962 0.3082451163 0.9455012836 
0.10222418151 0.26867255261 0.95672106863 0.10181364553 0.22013526056 0.96921291994 0.098582876484 0.15375190457 0.98041946581 
0.09295165538 0.072178803588 0.99053201908 0.087846083094 0.00070375458542 0.99460541686 0.083221663725 -0.061528037286 0.99315087052 
0.080681990344 -0.085698495036 0.99298094125 0.080191556521 -0.072455861718 0.99407375007 0.070242262128 -0.027352554763 0.99468454427 
0.050268485495 0.051516632839 0.99478450032 0.018561791272 0.13434728906 0.98712320119 -0.026437837207 0.22166613346 0.97066870511 
-0.074691740529 0.29990670589 0.94799440377 -0.12687188892 0.36719444787 0.9178159791 -0.17984174196 0.42811475983 0.8827615948 
-0.23383196173 0.48080780136 0.84140704885 -0.28992904688 0.53018388099 0.79303959701 -0.34895218822 0.57495329849 0.73493248316 
-0.40773464336 0.61408197154 0.67115700299 -0.46615724521 0.64477708892 0.59890666933 -0.51390819937 0.66621943019 0.53890598842 
-0.54449575352 0.67278036772 0.49860664104 -0.55582328666 0.67733568918 0.48132612188 -0.53380226839 0.67841830466 0.50390249467 
-0.50561578764 0.68132866131 0.52799817447 -0.46591264203 0.68765311427 0.55493181653 -0.43744461878 0.69227502667 0.57390971748 
-0.43156750508 0.69347357273 0.57689069179 -0.44038295941 0.69082480533 0.5723873602 -0.48135726201 0.67975510227 0.55150250446 
-0.53052046515 0.6637779986 0.52358129741 -0.59928430154 0.63605473204 0.47881815403 -0.66284492266 0.60776083679 0.43442809645 
-0.71279124441 0.57797388207 0.39101422411 -0.75144916234 0.55469875003 0.35719322783 -0.75778562292 0.55006855682 0.35083897881 
-0.75462311135 0.5518591823 0.35342302309 -0.72139332665 0.57397374455 0.3842996133 -0.68491209803 0.59624897401 0.41675812747 
-0.63698015258 0.61909003046 0.45478775521 -0.59165321039 0.63927866694 0.49043450207 -0.55656032202 0.64904696763 0.51671982835 
-0.5254038751 0.65720012052 0.54030395668 -0.51163847458 0.65821761277 0.55195429664 -0.50059066257 0.65917299832 0.5611549979 
-0.50314161534 0.65981760302 0.55809775034 -0.50566121318 0.6608511994 0.55458782065 -0.50800208623 0.66410206922 0.54849757843 
-0.5100946039 0.66610814011 0.54413563579 -0.5106172122 0.66024556125 0.55069865763 -0.51135768585 0.6543722716 0.55704091907 
-0.51355641664 0.64842729051 0.56190554561 -0.51532633748 0.64355345777 0.56592663183 -0.51371842841 0.64711729513 0.56330296622 
-0.51182824416 0.65128078665 0.56020789303 -0.50721440313 0.66123030632 0.55256423557 -0.5026915902 0.6710344201 0.54497326901 
-0.49928904961 0.67904904006 0.53803076346 -0.49606912962 0.68664154243 0.53144964738 -0.49587655932 0.68723649078 0.53085937935 
-0.49572453955 0.6875351763 0.53060139717 -0.49724302663 0.67562911097 0.54403215896 -0.49863145344 0.66474281465 0.55631255963 
-0.49863145344 0.66474281465 0.55631255963 -0.49863145344 0.66474281465 0.55631255963 
FrenetTangent 3 128 double
-0.66109474096 -0.74564700737 -0.083452284978 -0.66109474096 -0.74564700737 -0.083452284978 -0.6466642496 -0.75817596559 -0.083633447203 
-0.62391382092 -0.7768459954 -0.085099021674 -0.59358902554 -0.79978959755 -0.089379351147 -0.55644733646 -0.82503928981 -0.098369365198 
-0.51301834913 -0.85075744859 -0.11412246546 -0.46338225849 -0.87525445404 -0.13858760117 -0.40708430868 -0.89680142052 -0.1732904434 
-0.34328829879 -0.91335437562 -0.21894503523 -0.27122100616 -0.9223950117 -0.275002924 -0.19086160067 -0.92113083187 -0.33924893511 
-0.10364195927 -0.90720611901 -0.40771975904 -0.012739733195 -0.87975142244 -0.47526322592 0.077392200625 -0.84017823265 -0.5367597085 
0.16215469439 -0.79208307563 -0.58848131354 0.23796090171 -0.74023230601 -0.62883284138 0.30280198054 -0.68927829212 -0.65818416616 
0.35612984601 -0.6428963652 -0.67812668167 0.39838851178 -0.60354415669 -0.69066710115 0.43053946929 -0.57263733884 -0.6976548169 
0.45373477305 -0.55086859712 -0.70047736897 0.46915178477 -0.53849522098 -0.69994249751 0.47793152229 -0.53554591424 -0.69625572439 
0.4811559564 -0.54194868101 -0.68904322998 0.47983082888 -0.55760690176 -0.67737502078 0.47484197462 -0.58244119094 -0.65976310767 
0.46686402682 -0.61640992984 -0.6340952443 0.45621067917 -0.6594936205 -0.59744454197 0.44260273453 -0.71155303217 -0.54570605806 
0.42477987853 -0.77190697238 -0.47299226293 0.39986270082 -0.83819226948 -0.37086862887 0.36243082719 -0.90366826517 -0.22809551078 
0.3038956141 -0.95211857197 -0.033431731015 0.21494177966 -0.95315148507 0.21284331764 0.095411624892 -0.87261239052 0.47900337967 
-0.035763972741 -0.70839985402 0.70490466382 -0.15261127661 -0.50364224019 0.85032599169 -0.24310585805 -0.30501759531 0.92079520434 
-0.3091325849 -0.13342437924 0.94161296719 -0.35649941805 0.0091351830022 0.93425088352 -0.38983655905 0.1270295497 0.91208056154 
-0.41184294596 0.22501150037 0.88303749216 -0.42386453794 0.30654039096 0.85227451105 -0.42657399451 0.3736729521 0.82365232476 
-0.42045794059 0.42732440006 0.80038052032 -0.40608568209 0.46750798869 0.78519468879 -0.38419058864 0.4934594086 0.78031750183 
-0.35562016109 0.50362312459 0.78733604605 -0.32122003825 0.49553225672 0.80701020413 -0.28172565214 0.46564079794 0.83893343253 
-0.2377429681 0.40929197535 0.88088498684 -0.18991075109 0.32127004384 0.92774967828 -0.13936000505 0.19770267388 0.97030533428 
-0.088428082549 0.039906055378 0.9952828648 -0.041064057913 -0.14132595378 0.98911107462 -0.0019405271622 -0.3260362554 0.94535527423 
0.025699782635 -0.49320511223 0.86953334522 0.041520875927 -0.63021405146 0.77531043215 0.047573963825 -0.73504816315 0.67634378523 
0.04683566899 -0.81217082334 0.58153673471 0.042191796247 -0.8678840106 0.49497191484 0.036125145905 -0.90786000983 0.41771422813 
0.030773143094 -0.93643554518 0.34948745812 0.028057267026 -0.9566982856 0.28972604319 0.029750383972 -0.97078299948 0.23810771212 
0.037458934279 -0.9801370565 0.19475158205 0.052537429371 -0.98568351938 0.16021179148 0.075967273662 -0.98788087876 0.13535266055 
0.108229076 -0.98671428063 0.12116680864 0.149183801 -0.98167509722 0.1185672679 0.19797478178 -0.97179125648 0.12817074399 
0.25298453293 -0.95575773068 0.15008659614 0.31189280145 -0.9321834396 0.1837305509 0.37188451933 -0.89991560457 0.22771431429 
0.43002645587 -0.85834201578 0.279868239 0.48372730413 -0.80756470848 0.33741241361 0.53114818507 -0.74838854879 0.39723568008 
0.57144651239 -0.6821497817 0.45620232223 0.60478452183 -0.61048729529 0.51141073947 0.63214446179 -0.53513580113 0.56037759928 
0.65501493576 -0.45779344902 0.60114939238 0.67503327177 -0.38003453357 0.63237950259 0.69363840286 -0.30327043907 0.65337034434 
0.71179460441 -0.22874405269 0.6640968299 0.72984091764 -0.15749354991 0.66522779307 0.74747849034 -0.090347824963 0.65811334662 
0.7639153237 -0.027893687269 0.644713363 0.77810813301 0.029574698459 0.62743371806 0.789030753 0.082024545603 0.60885338526 
0.7958975531 0.12965191576 0.59138605472 0.79828925096 0.17277955782 0.57695883407 0.79620659489 0.21167065302 0.56678972548 
0.79006953162 0.24639389179 0.56132003822 0.78069188455 0.27672462951 0.560306756 0.76922780141 0.30213393502 0.56303079387 
0.75705137369 0.32186592057 0.56857325541 0.74556381658 0.33504813203 0.57608796605 0.73594604187 0.34079849886 0.5850126551 
0.72890286918 0.33831103591 0.59518589556 0.72448947816 0.32687272732 0.60685188982 0.72202748704 0.30586018655 0.62058509025 
0.72010355229 0.27471771295 0.63716642424 0.7166483582 0.23292730044 0.65738877645 0.70902628906 0.17998598917 0.68182605196 
0.69412559897 0.11546071365 0.71053393758 0.66848505187 0.03916988541 0.74269337919 0.62856747722 -0.048420715299 0.77624632747 
0.57139684622 -0.14550621767 0.80767170605 0.49566558777 -0.24827684377 0.8322705293 0.4030840802 -0.35075943252 0.84527572116 
0.2990812078 -0.44581936539 0.84367975239 0.19187642616 -0.52724200025 0.82776766684 0.090083856017 -0.5916421361 0.80115197165 
0.00031175935579 -0.63896346835 0.76923701739 -0.073835605352 -0.67149518883 0.73732117477 -0.13137817962 -0.69245024412 0.70940287097 
-0.17302200403 -0.70492551904 0.68785419875 -0.20032774509 -0.71141355343 0.6736167683 -0.21523321786 -0.71372564246 0.66653609747 
-0.21985944274 -0.71311491631 0.66567930836 -0.21648057212 -0.71046887529 0.66960446469 -0.20753906465 -0.70649861272 0.6765997686 
-0.19560288872 -0.70188053859 0.68491110334 -0.18322351197 -0.69731427119 0.69295162302 -0.17271844309 -0.69349248482 0.69945443948 
-0.1659089854 -0.69101885645 0.70353901711 -0.1659089854 -0.69101885645 0.70353901711 
FrenetNormal 3 128 double
0.74765039307 -0.66401399307 0.01021306782 0.74765039307 -0.66401399307 0.01021306782 0.76177543242 -0.6475340355 -0.019946514336 
0.78148972992 -0.6198788228 -0.070880512595 0.80222265194 -0.57922389229 -0.14470141435 0.81787066857 -0.52301023771 -0.23989135196 
0.8228411908 -0.44955536988 -0.34760947072 0.81592110047 -0.36038392541 -0.45210196208 0.8021161613 -0.260246329 -0.53747698743 
0.78901336507 -0.15397931692 -0.59476741648 0.78138790862 -0.044172962871 -0.62248026925 0.77927554737 0.067973956406 -0.62298407886 
0.77947381636 0.18053951569 -0.59985502656 0.77806929133 0.28981531239 -0.55732868452 0.77238736927 0.39094829071 -0.50057685302 
0.76186391341 0.47950556812 -0.43547421003 0.7478630879 0.55274444124 -0.367660692 0.73277483142 0.60995584068 -0.30165364057 
0.71950998315 0.65170129509 -0.23998084533 0.71167955788 0.67842785112 -0.18233995096 0.71534963433 0.68783494401 -0.12311779105 
0.74426345841 0.66655815735 -0.04209664288 0.83144514391 0.53646972637 0.14456557462 0.71742612644 -0.21936522481 0.66119486632 
0.047605928873 -0.76869586873 0.63784036948 -0.13618388065 -0.81003753248 0.5703447612 -0.18156286618 -0.79837567688 0.57413517938 
-0.18854286263 -0.76993028489 0.60963837261 -0.18485735298 -0.7269723163 0.66131611985 -0.18292405765 -0.66740697729 0.72187721656 
-0.19035453329 -0.58694874164 0.78692841247 -0.21230708242 -0.47832004692 0.85213592546 -0.25156307886 -0.33050179779 0.90966179375 
-0.30663199702 -0.13097390037 0.94277391554 -0.36735036595 0.12302707728 0.92190999934 -0.41339667345 0.40300636 0.81651029644 
-0.42674858296 0.64863757785 0.63020230049 -0.4091744218 0.81539656948 0.40951767608 -0.37538270696 0.90489254323 0.20064224011 
-0.33591593779 0.94160762975 0.023142046773 -0.29254518877 0.94857723589 -0.12090715479 -0.24168698693 0.94160722012 -0.23444240951 
-0.17745284373 0.93068000282 -0.31991439574 -0.092299608385 0.9214674025 -0.37733090044 0.02544088832 0.9152608051 -0.40205773198 
0.19766851013 0.90409771657 -0.37885944491 0.46288869494 0.8460773672 -0.26436176882 0.80801384197 0.58860697447 0.025601968449 
0.9214940984 0.048189814532 0.38539118878 0.76075174019 -0.37247902931 0.53152249484 0.59647270807 -0.59987847934 0.53325989775 
0.47868040015 -0.73974688519 0.47290550892 0.39472769724 -0.84022755197 0.37176297011 0.33112264372 -0.91415861442 0.23382006438 
0.27767470797 -0.95860023216 0.063105874893 0.22692568695 -0.96539540222 -0.12851634129 0.1746760028 -0.93093356288 -0.32070390636 
0.12042390056 -0.86195896296 -0.49246810083 0.066186234742 -0.77254027774 -0.63150685001 0.015018434366 -0.67650755214 -0.73628253987 
-0.029423135983 -0.58304467433 -0.81190712942 -0.062364465637 -0.49673470246 -0.86565888709 -0.077388434062 -0.4192732753 -0.90455566489 
-0.065922822741 -0.35079324528 -0.93412969148 -0.016403354236 -0.2902417725 -0.95681275256 0.087665872547 -0.23476106936 -0.96809190427 
0.26813848811 -0.17788289553 -0.9468154132 0.53386941945 -0.1078591858 -0.83865954893 0.81483008567 -0.016733598603 -0.57945829717 
0.97073179811 0.078608524529 -0.22693716313 0.98453930086 0.15859959975 0.074354098888 0.9322843759 0.22706438573 0.28158055186 
0.85961318226 0.29324161067 0.41841908974 0.78070555384 0.36165401516 0.5096128055 0.69872590112 0.43286744562 0.56956816065 
0.61481187105 0.50542497693 0.60543534412 0.5308282333 0.57722264164 0.6205122148 0.4499595696 0.64641183984 0.61618837951 
0.37637294962 0.71185228395 0.59296688662 0.31436434962 0.77301825375 0.55101527661 0.2676544124 0.82949679717 0.49020014178 
0.23842307783 0.88015061448 0.41047452027 0.22664159537 0.92249915388 0.31245623429 0.22926184762 0.95283092095 0.19887745298 
0.24020139749 0.96775258963 0.075882895963 0.251314267 0.96677151878 -0.046839830085 0.25464755035 0.95399625193 -0.15825857453 
0.24430864329 0.93720150901 -0.24893095091 0.21639739589 0.92511981447 -0.31197034464 0.16853734414 0.92412535681 -0.34291032141 
0.097998513587 0.93633160279 -0.33716378949 0.0035117102886 0.956615367 -0.29133264067 -0.11159870135 0.97211033169 -0.206269806 
-0.23654547054 0.96728797604 -0.091652669197 -0.35692107943 0.93342873051 0.036306309522 -0.46408115462 0.86985866476 0.16725604705 
-0.55954936385 0.76868265698 0.30988946782 -0.6451645342 0.57951573561 0.49791990921 -0.6553333511 0.14152857941 0.74196216894 
-0.40541138833 -0.48725076816 0.77345219318 -0.15505283124 -0.78055836464 0.60554707407 -0.060056803805 -0.86588185307 0.49663044292 
-0.053484002724 -0.89357543508 0.44571560808 -0.094066536591 -0.90168685091 0.42203354084 -0.16238629062 -0.89922266735 0.40623796862 
-0.24720370652 -0.88879357169 0.38592267931 -0.34115934071 -0.87119920925 0.35301875594 -0.43882938013 -0.84609871708 0.30256525923 
-0.53553904013 -0.81184223294 0.23261583202 -0.62614201492 -0.76623498665 0.14432644381 -0.70506205608 -0.70787218763 0.042478971804 
-0.76740544661 -0.63785721042 -0.065015841332 -0.81085722545 -0.56032946784 -0.1689421422 -0.8367142237 -0.48126632646 -0.26132743995 
-0.84916129001 -0.40642904229 -0.3372544101 -0.85384920912 -0.33942632509 -0.3946280501 -0.85629145232 -0.2813060399 -0.43316493464 
-0.86188727021 -0.22963108297 -0.45212818888 -0.87818014552 -0.17443782777 -0.44538867997 -0.92824224904 -0.06251735483 -0.36668502484 
-0.017534787352 0.68515457526 0.72818661017 0.70418850975 0.36142216047 0.61114038048 0.76864061791 0.310047248 0.55951970877 
0.7941360359 0.29641331432 0.53055358219 0.80855723566 0.29403994491 0.50968196697 0.81685694555 0.29594889601 0.49513531631 
0.8217671642 0.2975006657 0.48599596886 0.8217671642 0.2975006657 0.48599596886 
FrenetBinormal 3 128 double
-0.063028828435 -0.055641328241 0.9964594369 -0.063028828435 -0.055641328241 0.9964594369 -0.039032535803 -0.076608603133 0.99629693519 
0.0023121609844 -0.11072734291 0.99384813198 0.063960030285 -0.15759531164 0.98543027773 0.14647160558 -0.21394032232 0.96580308927 
0.24442697924 -0.27223470219 0.93066842578 0.34575951226 -0.32257257632 0.88113409461 0.43691192408 -0.35779751311 0.82528110981 
0.50952041534 -0.37692725359 0.77350810716 0.56202500129 -0.38371368459 0.73272894455 0.59690993513 -0.38327213808 0.70484111508 
0.61780167844 -0.37997702682 0.68843194668 0.62804926326 -0.37688794013 0.68081539605 0.63041906624 -0.37584567494 0.67919940338 
0.62711181821 -0.37772848905 0.6812135906 0.61973817941 -0.38279200074 0.68512398378 0.60938658258 -0.3909594716 0.68978162091 
0.59621884986 -0.4024545758 0.69466063476 0.57861800921 -0.41889151548 0.69980790055 0.55037320615 -0.44606004974 0.70577600269 
0.49009862293 -0.50223899846 0.71243198147 0.29765008906 -0.64978698792 0.6994149661 -0.50683450268 -0.81551791635 0.27937307496 
-0.87534143119 -0.339703236 -0.34406262553 -0.86672736562 -0.18142144052 -0.46461805239 -0.8611387953 -0.15283500145 -0.4848519749 