# vtk DataFile Version 4.2
vtk output
ASCII
DATASET POLYDATA
POINTS 128 float
0 0 0 -0.296381 0.140594 0.0830299 -0.872016 0.419779 0.24423 
-1.34658 0.663463 0.377401 -1.7392 0.874362 0.49021 -2.15659 1.09387 0.615185 
-2.59769 1.31532 0.753673 -3.03615 1.52029 0.899639 -3.47432 1.70067 1.05507 
-3.92159 1.85051 1.22374 -4.37761 1.9582 1.40588 -4.83841 2.01113 1.60023 
-5.29748 2.00161 1.80372 -5.74763 1.92543 2.01278 -6.1827 1.78899 2.22434 
-6.59831 1.60337 2.43564 -6.99858 1.38419 2.64431 -7.39188 1.14827 2.84671 
-7.7929 0.90852 3.02929 -8.21667 0.675395 3.17274 -8.66159 0.453683 3.24546 
-9.11703 0.244593 3.21482 -9.5599 0.0412485 3.08195 -9.96329 -0.166724 2.86413 
-10.3161 -0.387574 2.58163 -10.6141 -0.627675 2.25473 -10.8471 -0.886245 1.89188 
-11.0017 -1.15811 1.49626 -11.064 -1.43106 1.07743 -11.022 -1.69007 0.648665 
-10.8838 -1.92841 0.22622 -10.6684 -2.14472 -0.173164 -10.3958 -2.3455 -0.544189 
-10.0855 -2.54176 -0.887827 -9.75114 -2.74453 -1.20213 -9.40191 -2.9642 -1.48417 
-9.04318 -3.20363 -1.74046 -8.67856 -3.46334 -1.97871 -8.32114 -3.77506 -2.14572 
-7.99417 -4.18229 -2.15091 -7.76983 -4.60348 -1.95707 -7.74087 -4.88343 -1.57276 
-7.86451 -5.01313 -1.07831 -8.02968 -5.06216 -0.585451 -8.20426 -5.05727 -0.121976 
-8.40135 -4.99949 0.331002 -8.62319 -4.88544 0.769256 -8.86479 -4.70998 1.17496 
-9.1182 -4.47635 1.54065 -9.37371 -4.19357 1.86654 -9.6221 -3.87492 2.16442 
-9.85469 -3.53638 2.45365 -10.0648 -3.19214 2.75181 -10.247 -2.85547 3.07526 
-10.3925 -2.54553 3.44261 -10.4903 -2.28764 3.87242 -10.5269 -2.13359 4.35452 
-10.4893 -2.15237 4.85448 -10.391 -2.35264 5.31624 -10.2662 -2.69397 5.67026 
-10.1381 -3.12911 5.89605 -10.0203 -3.60792 6.01094 -9.91878 -4.10017 6.03165 
-9.83393 -4.59161 5.97393 -9.76394 -5.07533 5.85814 -9.7055 -5.55042 5.70846 
-9.65421 -6.02313 5.55053 -9.60483 -6.5052 5.41164 -9.55353 -6.99875 5.32824 
-9.4979 -7.49649 5.34357 -9.43886 -7.98202 5.47013 -9.38032 -8.43126 5.69046 
-9.32219 -8.83729 5.98063 -9.26027 -9.21026 6.31184 -9.1878 -9.55944 6.66442 
-9.09541 -9.89237 7.02831 -8.97054 -10.2131 7.39361 -8.79744 -10.5217 7.75021 
-8.56616 -10.8127 8.08892 -8.27395 -11.0748 8.40187 -7.92659 -11.2998 8.68705 
-7.5396 -11.4844 8.94949 -7.12636 -11.6281 9.19549 -6.69662 -11.7336 9.43233 
-6.25729 -11.8036 9.66441 -5.81172 -11.8403 9.8922 -5.36188 -11.8457 10.1143 
-4.90812 -11.8218 10.3271 -4.45042 -11.7712 10.5262 -3.98836 -11.6968 10.7069 
-3.52184 -11.6022 10.8654 -3.05132 -11.4929 11.0006 -2.57745 -11.3741 11.114 
-2.10117 -11.2514 11.2124 -1.62364 -11.1295 11.3049 -1.14643 -11.0118 11.4048 
-0.671854 -10.9005 11.5238 -0.203555 -10.7964 11.6698 0.25581 -10.7005 11.847 
0.70597 -10.615 12.0521 1.14712 -10.5437 12.2808 1.57985 -10.493 12.5282 
2.00545 -10.4729 12.7908 2.42673 -10.5011 13.0679 2.8333 -10.6027 13.3558 
3.18151 -10.8186 13.6427 3.42971 -11.1656 13.9158 3.55452 -11.592 14.1626 
3.55303 -12.0455 14.3791 3.46679 -12.4994 14.5827 3.33513 -12.9374 14.7895 
3.17298 -13.3602 15.0046 2.98961 -13.7706 15.2286 2.78964 -14.1696 15.4556 
2.57441 -14.5602 15.6788 2.3379 -14.9524 15.8925 2.06937 -15.3482 16.0742 
1.74736 -15.72 16.1469 1.36488 -16.035 16.0501 0.971275 -16.2637 15.8168 
0.608625 -16.3962 15.4992 0.257185 -16.4859 15.1477 -0.104994 -16.5835 14.8043 
-0.464851 -16.6888 14.4833 -0.823846 -16.8133 14.1997 -1.26411 -17.0514 13.9913 
-1.7923 -17.428 13.8871 -2.06334 -17.6385 13.861 
LINES 1 129
128 0 1 2 3 4 5 6 7 8 9 10 11 12 13 14 15 16 17 18 19 20 21 22 23 24 25 26 27 28 29 30 31 32 33 34 35 36 37 38 39 40 41 42 43 44 45 46 47 48 49 50 51 52 53 54 55 56 57 58 59 60 61 62 63 64 65 66 67 68 69 70 71 72 73 74 75 76 77 78 79 80 81 82 83 84 85 86 87 88 89 90 91 92 93 94 95 96 97 98 99 100 101 102 103 104 105 106 107 108 109 110 111 112 113 114 115 116 117 118 119 120 121 122 123 124 125 126 127 

CELL_DATA 1
FIELD FieldData 2
Length 1 1 double
53.248858073 
Tortuosity 1 1 double
1.3636963423 
POINT_DATA 128
SCALARS MaximumInscribedSphereRadius float
LOOKUP_TABLE default
1.116 1.116 1.116 1.07581 1.03416 1.05573 1.08051 1.125 1.17097 
1.10896 1.036 1.21874 1.43415 1.5822 1.71996 1.70149 1.65502 1.60735 
1.55943 1.49873 1.43489 1.33736 1.23068 1.20557 1.20428 1.24335 1.2954 
1.19652 1.04438 1.16948 1.39944 1.42017 1.35597 1.32489 1.30859 1.34058 
1.39642 1.47003 1.55331 1.70939 1.9081 1.99691 2.0429 2.06542 2.07819 
2.34122 2.71858 3.01891 3.28083 3.01229 2.45689 2.23084 2.20058 2.24273 
2.33222 2.25447 2.05882 1.88048 1.71441 1.75179 1.92398 2.13651 2.3765 
2.47809 2.47942 2.4272 2.33274 2.33934 2.43348 2.52563 2.61594 2.57134 
2.39585 2.19178 1.95771 1.76979 1.63483 1.50238 1.37309 1.38513 1.58784 
1.70258 1.68902 1.71653 1.80951 1.95634 2.19748 2.33269 2.26321 2.14219 
1.91099 1.74377 1.72852 1.73791 1.81282 1.87026 1.87533 1.87746 1.86964 
1.865 1.87269 1.88346 1.90804 1.91361 1.82069 1.74507 1.7674 1.78745 
1.79519 1.79609 1.75457 1.75769 2.0977 2.41923 2.56278 2.69942 2.746 
2.80257 3.02997 3.23941 3.22105 3.20041 3.13724 3.07329 2.98362 2.89159 
2.6951 2.4986 
TEXTURE_COORDINATES TCoords 2 float
0 0 0.00787402 0 0.015748 0 0.023622 0 0.0314961 
0 0.0393701 0 0.0472441 0 0.0551181 0 0.0629921 0 
0.0708661 0 0.0787402 0 0.0866142 0 0.0944882 0 0.102362 
0 0.110236 0 0.11811 0 0.125984 0 0.133858 0 
0.141732 0 0.149606 0 0.15748 0 0.165354 0 0.173228 
0 0.181102 0 0.188976 0 0.19685 0 0.204724 0 
0.212598 0 0.220472 0 0.228346 0 0.23622 0 0.244094 
0 0.251969 0 0.259843 0 0.267717 0 0.275591 0 
0.283465 0 0.291339 0 0.299213 0 0.307087 0 0.314961 
0 0.322835 0 0.330709 0 0.338583 0 0.346457 0 
0.354331 0 0.362205 0 0.370079 0 0.377953 0 0.385827 
0 0.393701 0 0.401575 0 0.409449 0 0.417323 0 
0.425197 0 0.433071 0 0.440945 0 0.448819 0 0.456693 
0 0.464567 0 0.472441 0 0.480315 0 0.488189 0 
0.496063 0 0.503937 0 0.511811 0 0.519685 0 0.527559 
0 0.535433 0 0.543307 0 0.551181 0 0.559055 0 
0.566929 0 0.574803 0 0.582677 0 0.590551 0 0.598425 
0 0.606299 0 0.614173 0 0.622047 0 0.629921 0 
0.637795 0 0.645669 0 0.653543 0 0.661417 0 0.669291 
0 0.677165 0 0.685039 0 0.692913 0 0.700787 0 
0.708661 0 0.716535 0 0.724409 0 0.732283 0 0.740157 
0 0.748031 0 0.755906 0 0.76378 0 0.771654 0 
0.779528 0 0.787402 0 0.795276 0 0.80315 0 0.811024 
0 0.818898 0 0.826772 0 0.834646 0 0.84252 0 
0.850394 0 0.858268 0 0.866142 0 0.874016 0 0.88189 
0 0.889764 0 0.897638 0 0.905512 0 0.913386 0 
0.92126 0 0.929134 0 0.937008 0 0.944882 0 0.952756 
0 0.96063 0 0.968504 0 0.976378 0 0.984252 0 
0.992126 0 1 0 
FIELD FieldData 7
Curvature 1 128 double
0 0.012984354007 0.025402368658 0.039017046489 0.054089170715 0.070589788596 0.088121312522 0.10587487507 0.12262528753 
0.13689130241 0.14726527535 0.15295842175 0.15433291967 0.15325570075 0.1529142289 0.15703018439 0.1684631822 0.1881218316 
0.21499187244 0.24698584409 0.28159615485 0.31617000489 0.34805512143 0.37467427631 0.39348350074 0.40215724824 0.39900705124 
0.38384537399 0.35863863047 0.32759038837 0.29625401058 0.27079530478 0.25767111132 0.26390944624 0.29783501458 0.37090978298 
0.50151747855 0.71649768156 1.032041093 1.3766988209 1.5257873871 1.3380814105 0.99002553457 0.68568027645 0.47477403822 
0.3350964758 0.23880846975 0.16706844845 0.10915302023 0.061851217804 0.046004138235 0.088290830731 0.15814139295 0.25158922186 
0.37541329667 0.53239335628 0.70366607651 0.83123127525 0.8440738962 0.73379205618 0.56508629166 0.40189851575 0.26931224816 
0.16688046871 0.086692719076 0.021529392197 0.034217021805 0.081527061178 0.12097359344 0.15121617044 0.1710378259 0.1807432366 
0.1828154928 0.18119968625 0.17986759052 0.1812227969 0.18544339554 0.19094362967 0.19554290275 0.19733845477 0.19534765285 
0.1895183381 0.18044128109 0.1690263803 0.15609131103 0.14219487204 0.12761109361 0.11237581818 0.096407130333 0.079577592795 
0.061819491662 0.04315861991 0.023973340628 0.0083448249147 0.021407345812 0.04326681746 0.067232858238 0.093763962712 0.1240121481 
0.15951076907 0.20174644649 0.25145316786 0.30736577749 0.36441234843 0.41298350619 0.44139282609 0.44233740277 0.41827226665 
0.38001131337 0.34000558841 0.30730535938 0.28644984909 0.27855546325 0.28201167141 0.2923723136 0.30230251355 0.30285246704 
0.28703006402 0.25357769887 0.20762061902 0.1573369365 0.11005209499 0.070432274498 0.040547547108 0.020658490024 0.0093140538687 
0.0034515082454 0 
Torsion 1 128 double
0 0 -0.038633380636 -0.047125699493 -0.053047558784 -0.057574558358 -0.062613829281 -0.070167553699 -0.082465316214 
-0.10194680283 -0.13152980598 -0.17424273592 -0.23175605295 -0.29984624496 -0.36121755976 -0.3856677571 -0.3524691351 -0.27324103949 
-0.17817140028 -0.089164503166 -0.014215224049 0.045697722797 0.091906024287 0.12590948746 0.14971173287 0.16652486227 0.18087780511 
0.19845110067 0.22551488006 0.26822126217 0.33113929764 0.41213813416 0.49276273036 0.5351514444 0.5086201995 0.42273533295 
0.31217844807 0.20306514874 0.10854720246 0.036568538182 -0.015447061434 -0.059720003967 -0.10166163216 -0.13641671373 -0.1626175973 
-0.18769059799 -0.22704299182 -0.31476055672 -0.56610656646 -1.5650936366 -2.953781129 -0.98904813682 -0.44240775262 -0.28235072545 
-0.21866557855 -0.18610923069 -0.16467021561 -0.14855578775 -0.13715099168 -0.12879900964 -0.12052879469 -0.11186675887 -0.10581657716 
-0.10993263464 -0.15588109231 -1.0905211203 -0.41086437844 -0.1419429729 -0.13077165391 -0.14974807864 -0.18396622446 -0.2291562867 
-0.27910155304 -0.32082372758 -0.33613331701 -0.31439195104 -0.26198322395 -0.19653210338 -0.13337240817 -0.080416439981 -0.040042768776 
-0.012206378969 0.0039637738183 0.01019637813 0.0087442967879 0.0026528639624 -0.0042234946068 -0.0079024769559 -0.0045101886486 0.011138905711 
0.050184419168 0.1514850816 0.57346759212 5.0308687915 0.84404010114 0.26526515427 0.1626497305 0.12916039729 0.11008671518 
0.091953227248 0.071487427034 0.048856402875 0.026038933588 0.0053177882375 -0.01163942068 -0.023204775486 -0.02796282492 -0.023746321923 
-0.0077067398678 0.021569968009 0.061093084064 0.10144041289 0.12944745362 0.13609440528 0.12303772443 0.098841812955 0.071792227513 
0.046007635501 0.02189785137 -0.0025519378342 -0.030950010376 -0.069667614917 -0.13147415814 -0.24026853367 -0.43284931783 -0.67763062407 
0 0 
Abscissas 1 128 double
0 0.50146882659 1.0029376532 1.5044057143 2.0058737477 2.507345061 3.0088165402 3.5102861792 4.0117556805 
4.5132232146 5.0146905492 5.5161618496 6.0176336566 6.5190997221 7.0205649109 7.5220331535 8.0235019436 8.5249714422 
9.0264410903 9.5279111526 10.029381316 10.530850449 11.032319301 11.533780835 12.035240232 12.536706107 13.038174066 
13.539641451 14.041108633 14.542575182 15.044041492 15.545511806 16.046983745 16.548446863 17.049906044 17.551372388 
18.052842273 18.554312626 19.055783234 19.557250661 20.058716227 20.560184747 21.061654419 21.563123458 22.064592234 
22.566061644 23.067531343 23.569000826 24.070470202 24.571939468 25.073408674 25.574878415 26.076348473 26.577823028 
27.079300523 27.580770984 28.082236488 28.583700412 29.085163216 29.586628157 30.088094512 30.589564511 31.091036988 
31.592508684 32.093979814 32.595449314 33.096917528 33.598385416 34.099853022 34.601320418 35.102787617 35.604258186 
36.105732022 36.607201816 37.108667368 37.610136798 38.111610679 38.613086176 39.114563697 39.61603528 40.117498851 
40.618961694 41.120423477 41.621887911 42.123356574 42.62482461 43.126291552 43.627763407 44.129244756 44.630718752 
45.132177029 45.633637472 46.13510306 46.636568975 47.138035759 47.639504223 48.140977728 48.642449752 49.143916746 
49.645382614 50.146844117 50.648311252 51.149803561 51.651291745 52.152758545 52.654218525 53.155639922 53.657075438 
54.158587673 54.660093888 55.161562794 55.663028065 56.164465908 56.66590902 57.167402888 57.668894861 58.170362178 
58.671829193 59.173291056 59.674753782 60.176227451 60.67770142 61.179180955 61.680659978 62.182122152 62.683584612 
63.185059815 63.686535019 
ParallelTransportNormals 3 128 double
0.26969400054 0 0.96294607641 0.27105937655 -0.00068707605115 0.96256104791 0.27242475256 -0.0013741521023 0.96217601942 
0.28057653555 -0.005601223829 0.95976490469 0.28897391709 -0.0099564072133 0.95728046635 0.30258110702 -0.016413691493 0.95284551767 
0.31645193396 -0.02297735044 0.94831186541 0.33465289726 -0.029527842193 0.94164533145 0.35317817326 -0.036077347769 0.9348190518 
0.37403511487 -0.039584002152 0.92627969128 0.39512865615 -0.042781891161 0.91756650034 0.41586208027 -0.041090271306 0.90821017091 
0.43654950229 -0.038774055535 0.89877168564 0.45232956594 -0.033498944047 0.89104518593 0.46736034585 -0.027772051323 0.88358008203 
0.45978935784 -0.032363827586 0.88732047404 0.4481672462 -0.038805114192 0.89306933056 0.37482511664 -0.079386877123 0.91801166086 
0.28846935553 -0.12716714054 0.94700092444 0.13179475772 -0.20454981734 0.95095878015 -0.042116399948 -0.28918864048 0.94878093481 
-0.18034766769 -0.3599289677 0.90243788837 -0.30888675232 -0.42689386937 0.84409768563 -0.3848738784 -0.47803049121 0.78367730569 
-0.44552693497 -0.52454859928 0.72264995348 -0.48791236162 -0.57964501521 0.64397241529 -0.52442047881 -0.63750136058 0.55961622008 
-0.53063829049 -0.70395588728 0.45421230771 -0.52616700818 -0.77344461145 0.34138090249 -0.49965178375 -0.82255242059 0.25669252822 
-0.46479834218 -0.86395105985 0.18264937798 -0.44464852979 -0.88285972591 0.14936267266 -0.43046694267 -0.89263967789 0.13261906983 
-0.43833107673 -0.88784242243 0.13780248989 -0.45603622152 -0.87653803328 0.15277393483 -0.49865880505 -0.84477485386 0.1799413985 
-0.55359201917 -0.80290386954 0.21313438841 -0.67099020369 -0.66954233109 0.22673972368 -0.8223843217 -0.48638797638 0.22968467443 
-0.91223788671 -0.29014172264 0.091574773521 -0.9660668686 -0.086231738541 -0.12910575733 -0.96579757523 -0.018927337393 -0.24645288353 
-0.94444552914 -0.0048597854786 -0.32352973112 -0.92398777131 -0.0043178790233 -0.37920665021 -0.90390140819 -0.0093931246811 -0.42599625564 
-0.87860101847 -0.024311257178 -0.47361938439 -0.85091884858 -0.043725644596 -0.52162326863 -0.83148281138 -0.061162993399 -0.55141023667 
-0.81615804214 -0.077614651595 -0.57211481096 -0.81941966526 -0.071111878851 -0.56811008934 -0.83273205236 -0.05219628476 -0.55074358688 
-0.85756077827 -0.0091511463554 -0.50771321482 -0.88923599489 0.048239063301 -0.4494256115 -0.92000334221 0.11608622196 -0.34520914253 
-0.95017724175 0.1907687843 -0.21097030874 -0.95615589078 0.21856857542 -0.031857314211 -0.9450766623 0.2133155751 0.17889238262 
-0.91996598814 0.15410183135 0.33260940474 -0.88491184146 0.056648466292 0.44590986206 -0.85892770714 -0.029883638643 0.50520521235 
-0.83895328608 -0.10917940925 0.52871723679 -0.82566677783 -0.17034113988 0.53587925292 -0.8169321281 -0.2191606665 0.53191329434 
-0.81249717424 -0.24560761908 0.52861095971 -0.81117733079 -0.25584574192 0.52578941766 -0.81315319187 -0.23652767188 0.53032471523 
-0.81772859028 -0.19389670289 0.54066283252 -0.82609834033 -0.11875352646 0.54300920932 -0.83775520897 -0.015444409891 0.53843219021 
-0.84896557537 0.076827017126 0.5166899169 -0.85976029976 0.15882363001 0.47896877449 -0.86696238527 0.20996230675 0.45132182442 
-0.87067893262 0.23116295809 0.43344874339 -0.86911376817 0.23056198538 0.43653368312 -0.86200895113 0.2070946716 0.46160016193 
-0.84156985776 0.16676954935 0.50697670629 -0.80582942385 0.10709976511 0.57565944453 -0.75550789061 0.047402589658 0.646128985 
-0.68693646053 -0.012328869011 0.71883491078 -0.62331428998 -0.05810502286 0.77740151696 -0.56636876352 -0.085055208343 0.81689391538 
-0.52123154602 -0.10378098297 0.84666758609 -0.49331809821 -0.11051051334 0.86226538042 -0.46866902948 -0.11521151542 0.87565650569 
-0.44922496921 -0.11667805648 0.88552912685 -0.42637608486 -0.1169976491 0.89660906252 -0.39756203159 -0.11530781596 0.90980418382 
-0.36406800634 -0.11181927803 0.92397923407 -0.32153152121 -0.10485535267 0.94004766491 -0.27905743353 -0.09700874419 0.95478503418 
-0.23671671239 -0.08727551405 0.9666774305 -0.20246697204 -0.079302383857 0.97600715442 -0.18743694788 -0.075510282184 0.97924937948 
-0.18482955293 -0.074768810128 0.97967090279 -0.2152514269 -0.082138347771 0.97259274829 -0.25230300472 -0.090763534312 0.96251718532 
-0.30923729719 -0.10315445599 0.94345228909 -0.36434875521 -0.11468676685 0.92351216117 -0.4132725705 -0.12330450863 0.90060104431 
-0.45978063926 -0.13076119373 0.8779583298 -0.49693722914 -0.13372336886 0.85635461458 -0.53577941284 -0.13470373573 0.83289418939 
-0.58215745686 -0.12682394309 0.80113288724 -0.63364126879 -0.10922357889 0.76274964861 -0.71159300773 -0.041232483457 0.69003877611 
-0.78201437796 0.036361422558 0.6168451032 -0.80983198166 0.16828412915 0.54091994174 -0.83067912994 0.29320874161 0.47035804101 
-0.81364785699 0.38010474021 0.42894084273 -0.79644668677 0.46131576594 0.38996277167 -0.77819275849 0.50730020544 0.36609860311 
-0.760547659 0.55084410768 0.34338808046 -0.74749577443 0.57597575296 0.32938106146 -0.73438962471 0.60067222098 0.31581493581 
-0.72076069925 0.62117630967 0.30649625707 -0.70542743821 0.64282764161 0.29793214165 -0.6679232395 0.6794029469 0.29918380235 
-0.63051286944 0.71499605648 0.3016639908 -0.59470561983 0.73380774323 0.32513433775 -0.56093688972 0.75141757192 0.34742484392 
-0.55301148682 0.75379084719 0.35475792052 -0.54578603143 0.75593404825 0.36149063794 -0.55159872131 0.7537915836 0.35704027369 
-0.55775312143 0.75140863839 0.35251943192 -0.5751382871 0.74112197711 0.34568225145 -0.59214142859 0.73106135643 0.33899531219 
-0.59214142859 0.73106135643 0.33899531219 -0.59214142859 0.73106135643 0.33899531219 
FrenetTangent 3 128 double
-0.87402190769 0.40585610351 0.26714514431 -0.87402190769 0.40585610351 0.26714514431 -0.8764783762 0.39766615827 0.27138032834 
-0.88052236518 0.38379237835 0.27817939309 -0.88615287496 0.36350033167 0.28740318556 -0.89323072175 0.33596594257 0.29877376583 
-0.90139716376 0.3004373505 0.31180210326 -0.91002917316 0.25643386171 0.32571241696 -0.91826677495 0.20397142268 0.33938442621 
-0.92514243683 0.14377077045 0.35134233612 -0.92980836978 0.077369874703 0.35981981321 -0.9318004449 0.0070475822344 0.3629025523 
-0.9312196169 -0.064481688201 0.35870898648 -0.92871129151 -0.13453854594 0.34553540583 -0.92520077061 -0.20094304298 0.32190903612 
-0.92145597364 -0.26230219884 0.28655967115 -0.91761728562 -0.31804745986 0.23837854435 -0.91282368068 -0.36825978522 0.17645865967 
-0.90501338376 -0.41339155677 0.10029055794 -0.89095445991 -0.45398020571 0.010105602345 -0.86654206191 -0.49041806813 -0.092709079326 
-0.82736898761 -0.52281211534 -0.20525118853 -0.76952167648 -0.55092824589 -0.32297748731 -0.69045384868 -0.5742339948 -0.43991908581 
-0.58976362933 -0.59203356165 -0.54924960027 -0.46969333408 -0.60371429136 -0.6441406883 -0.33515433645 -0.60910431483 -0.71879308874 
-0.19311924533 -0.60883612811 -0.76943065067 -0.051373401555 -0.60454612404 -0.79491179229 0.08302877588 -0.59875578736 -0.79661642557 
0.20498155861 -0.59445820235 -0.77756157717 0.31176670668 -0.59461429054 -0.74110415333 0.40272357044 -0.60176305369 -0.68970642524 
0.478435321 -0.61781665045 -0.62402101731 0.5397417625 -0.64393848529 -0.54223800768 0.58662836138 -0.68024411403 -0.43947139948 
0.61672642596 -0.72480512904 -0.3070928857 0.62290547248 -0.77094671322 -0.13277777573 0.5901966238 -0.80162552741 0.095207452774 
0.49728553263 -0.78408839094 0.37136571494 0.33635075919 -0.6839997277 0.64731177905 0.14085200771 -0.5085887074 0.8494105242 
-0.036759835993 -0.30975947637 0.9501040897 -0.17115996799 -0.12991203119 0.97664073717 -0.26394630163 0.018070314915 0.96436809029 
-0.32460495108 0.13606325821 0.93601197402 -0.3616086872 0.22878841684 0.90382244808 -0.38096143494 0.29993469917 0.87458993896 
-0.38673032359 0.35162101584 0.85252701895 -0.38166821812 0.38461074546 0.84047840291 -0.36757758384 0.39847252101 0.84030135657 
-0.34545477808 0.39151877088 0.8528622681 -0.3155306037 0.36054793405 0.87775032064 -0.27726995262 0.30054931663 0.91257409652 
-0.22947468002 0.20479629071 0.95152501309 -0.17083075669 0.066489095662 0.98305445054 -0.10152932924 -0.11591412326 0.98805653246 
-0.026145377682 -0.32920118832 0.94389776821 0.045029068383 -0.54096197926 0.83984077062 0.10079021694 -0.71506082967 0.69175815285 
0.13647230971 -0.83523692828 0.53268619498 0.15481774365 -0.90769399256 0.39002959135 0.16149246654 -0.94728437575 0.27671735529 
0.16168788287 -0.96726565916 0.19558674073 0.15918045002 -0.97651235801 0.14520743434 0.15654440634 -0.97998398116 0.12298473688 
0.15557540807 -0.97973725718 0.1261396024 0.15761292984 -0.97578687788 0.15165135447 0.1637532763 -0.96687111545 0.19581907621 
0.1749527604 -0.95127873721 0.25389032229 0.19205093255 -0.9277138789 0.32009904436 0.21575731724 -0.89593483051 0.38826480596 
0.246598906 -0.8568547254 0.45275706412 0.28485818101 -0.81208088022 0.50929408076 0.33048242621 -0.7632189906 0.55522800574 
0.38294801079 -0.71134635613 0.58935319007 0.44113343784 -0.65687070502 0.61149175538 0.50325654351 -0.59972616258 0.62214257315 
0.56696559012 -0.53973333497 0.62228445806 0.62960274444 -0.47694978396 0.6132856494 0.68859769246 -0.41187400759 0.59681908465 
0.74187076491 -0.34544805398 0.57471158869 0.78808636929 -0.27892518665 0.54874458066 0.82671064996 -0.21367611 0.52047288235 
0.85789078155 -0.15101512535 0.49113932733 0.88224314298 -0.092107288366 0.46169609496 0.90064034335 -0.037930543264 0.43290674033 
0.91403984259 0.010726490779 0.40548256257 0.92337341212 0.053253481467 0.38019154185 0.92948826035 0.089197405146 0.35790417264 
0.93311670194 0.11824033036 0.33957686146 0.93486049143 0.14015867903 0.32617695543 0.93518091409 0.15476747509 0.31856504294 
0.93438355968 0.16184595546 0.31738501871 0.93260252464 0.16103924894 0.32298435154 0.92977454121 0.15179727614 0.33537574372 
0.9255982192 0.13332305982 0.3542497683 0.91945873824 0.10453760182 0.37903498319 0.91029580311 0.064108458414 0.40896412605 
0.89641135737 0.010531892765 0.44309790973 0.875233852 -0.057658973634 0.48025112917 0.84313214128 -0.14143687889 0.51877143486 
0.79548876374 -0.24046856075 0.55621263744 0.72742544019 -0.35194931163 0.5890534025 0.63552910948 -0.46956880892 0.61286857049 
0.52023427783 -0.58372047659 0.62339931134 0.38727404393 -0.68393828113 0.61826146776 0.24633749362 -0.76265996499 0.59805318914 
0.10733917345 -0.81759384175 0.56570187535 -0.022905004264 -0.85107007965 0.52455226651 -0.14163233718 -0.86756247575 0.47673434084 
-0.24913001842 -0.87139663857 0.42261345483 -0.34710628193 -0.86551040354 0.36112182211 -0.4372357474 -0.85111439228 0.29056701887 
-0.52009645004 -0.82795606578 0.20973420273 -0.59463192126 -0.79512173942 0.11913982428 -0.65842472343 -0.75232311328 0.022063925359 
-0.7089354644 -0.70122917548 -0.075419830074 -0.74515725926 -0.64591027303 -0.16595354219 -0.76847963385 -0.59181832887 -0.2432901929 
-0.78211101774 -0.54394002763 -0.30402566055 -0.78967657684 -0.50540540827 -0.34781644195 -0.79407493514 -0.47714024746 -0.37653974774 
-0.79705646648 -0.45830496405 -0.39326524023 -0.79936932506 -0.44700618211 -0.4014899193 -0.80114495978 -0.44100141015 -0.40457942319 
-0.80226267316 -0.43831628472 -0.40528192384 -0.80226267316 -0.43831628472 -0.40528192384 
FrenetNormal 3 128 double
-0.25774231224 -0.85334689432 0.45317543892 -0.25774231224 -0.85334689432 0.45317543892 -0.25524176623 -0.86176271257 0.43842521369 
-0.24943082862 -0.87420897471 0.41658484163 -0.23879727563 -0.88973651799 0.38903057683 -0.22209169045 -0.90751285683 0.35650483267 
-0.1985275563 -0.92672289509 0.31901643392 -0.16803350644 -0.94645333937 0.27566431962 -0.13137379019 -0.96550433361 0.22481616718 
-0.090379120131 -0.9823140503 0.16398390537 -0.04798010614 -0.99479267271 0.089919117799 -0.0081909189694 -0.99996515469 -0.0016119073203 
0.024366191129 -0.99303722749 -0.11525343179 0.045432037997 -0.96612046561 -0.25406136239 0.0533422977 -0.90873816772 -0.41394388726 
0.052209089033 -0.81456029154 -0.57772462512 0.053044771633 -0.69237573713 -0.71958466551 0.06892625356 -0.56486979246 -0.82229635116 
0.10842314449 -0.45214869649 -0.88532817531 0.17375239406 -0.36138810156 -0.91608337263 0.26272968509 -0.29027948668 -0.92016896937 
0.37039439742 -0.23317141955 -0.89913240375 0.48969019917 -0.18440646255 -0.8521723801 0.61215008995 -0.13980172347 -0.77828513122 
0.72861071207 -0.096758688028 -0.67805913204 0.83051925422 -0.054738205808 -0.55429369219 0.9111077846 -0.015270780815 -0.411885188 
0.96629967822 0.018017688441 -0.25678842416 0.99472661251 0.039773810049 -0.094535762501 0.9965147382 0.043437460577 0.071214911128 
0.9707567403 0.022055606999 0.23904999762 0.91258809111 -0.029773517146 0.40779469545 0.81314866541 -0.11074236498 0.57142399017 
0.66788135264 -0.20535541213 0.7153765816 0.48926739487 -0.28420662162 0.82452653841 0.30229385824 -0.31950717397 0.89807215136 
0.12297165352 -0.2966191077 0.94704544631 -0.050483613891 -0.20898872229 0.9766141094 -0.22672441388 -0.051411926314 0.97260107649 
-0.40224225186 0.17089022148 0.89944299598 -0.54565300246 0.41867359045 0.7259305928 -0.61762686439 0.62539949456 0.47687789693 
-0.61508183669 0.75633336292 0.22278729385 -0.56424026395 0.82553832095 0.010927267497 -0.4885060129 0.85960376175 -0.14981070772 
-0.39936680841 0.87734385246 -0.26603367623 -0.29862046988 0.88993020906 -0.34474633859 -0.17708539569 0.9047395823 -0.38741070049 
0.00093319644891 0.92460507082 -0.38092596676 0.3720393503 0.8963254375 -0.24122071203 0.92884955713 0.20209140964 0.31047956837 
0.70504172578 -0.49150585534 0.51121244026 0.53417933812 -0.69702604371 0.47833788175 0.44789641776 -0.79986097137 0.39951373622 
0.39922338098 -0.87178779277 0.28391325518 0.3681601504 -0.92114693397 0.12627917367 0.34190613355 -0.93675543663 -0.074762609546 
0.30946352856 -0.90050287885 -0.30549450024 0.26372194371 -0.80443326101 -0.53229490415 0.20558656914 -0.66532346736 -0.71768993748 
0.14238970015 -0.51559507775 -0.84491827361 0.081155743506 -0.38177062837 -0.92068720672 0.025023903931 -0.27637706613 -0.96072343656 
-0.027093094296 -0.20247086357 -0.97891343522 -0.083848014872 -0.15992368868 -0.98356185581 -0.2330467553 -0.1576540701 -0.95960116925 
0.014172473029 0.12989505722 0.99142645472 0.10394567685 0.16911143811 0.98010031005 0.15451688577 0.22118699777 0.96291268765 
0.20469586805 0.28737591236 0.93568941781 0.26316670001 0.36290825339 0.89389087009 0.33457844496 0.44139230132 0.83260440817 
0.41990758209 0.51552391017 0.74693555314 0.51460791929 0.577807199 0.6334962748 0.60634212613 0.62251187187 0.4948011676 
0.67918517906 0.64924861666 0.34232108657 0.72225473063 0.66428535489 0.19254368689 0.73399512734 0.67662928733 0.058514618375 
0.71921616899 0.69264385924 -0.054521431711 0.68421115097 0.71434076807 -0.1468753484 0.63466083097 0.74043484948 -0.22127327742 
0.57531613488 0.76817894889 -0.28091359426 0.51034310691 0.79451355052 -0.32908681417 0.44342575381 0.81683821625 -0.36898364372 
0.37765909589 0.83345094745 -0.40340194035 0.31553087754 0.84351032598 -0.43466147204 0.25864922714 0.84730632478 -0.4638669737 
0.20780068633 0.84612437813 -0.49080791711 0.16291175485 0.84238665605 -0.51365794245 0.12320364339 0.83951221099 -0.52918816111 
0.086336114744 0.84308608823 -0.53080309261 0.046279129046 0.86281636417 -0.50339464036 -0.022680334018 0.92379194283 -0.38222251218 
-0.31566790541 0.78911076644 0.5269326065 -0.21748700327 -0.46341152462 0.85903967444 -0.16333800313 -0.64633174103 0.74536969168 
-0.15544237967 -0.71945894134 0.67691690651 -0.16702759396 -0.76885453109 0.61722321156 -0.19355302914 -0.80737827825 0.55738455371 
-0.23488961404 -0.83649601793 0.49507704573 -0.29202162206 -0.85449617971 0.42960406319 -0.36548493641 -0.85839412649 0.35997261681 
-0.45424677366 -0.84415939968 0.28470120574 -0.554317321 -0.80738852948 0.20212884529 -0.65814594653 -0.74450503313 0.11205431143 
-0.75536039746 -0.65509000588 0.016963317479 -0.83544383042 -0.54395214027 -0.078419865512 -0.89142312313 -0.42047082267 -0.16902397115 
-0.9212297494 -0.2957805207 -0.25268484798 -0.92642223838 -0.17915538484 -0.33112714224 -0.90946295528 -0.076141566781 -0.4087537092 
-0.87222931191 0.012238033908 -0.48894402335 -0.81608827772 0.089032611637 -0.5710281228 -0.74340140511 0.16020724115 -0.64937507711 
-0.65782788999 0.23168937693 -0.71664670499 -0.56354620648 0.30650425784 -0.76711851306 -0.46494680959 0.3835138382 -0.7979609014 
-0.36736826307 0.45844243865 -0.80924105787 -0.27739112155 0.52649558467 -0.80365201737 -0.20168808743 0.58486717685 -0.78565405926 
-0.14578053603 0.63407072873 -0.75940920871 -0.11349055957 0.67746606676 -0.72674591246 -0.10893155067 0.72117748484 -0.68413226253 
-0.13864478007 0.77268074677 -0.61946919902 -0.2144833962 0.8364826586 -0.50427535595 -0.33932913557 0.89157861245 -0.29990551108 
-0.45710697432 0.887697021 -0.055201566484 -0.45710697432 0.887697021 -0.055201566484 
FrenetBinormal 3 128 double
0.41189149708 0.32723065444 0.85045017105 0.41189149708 0.32723065444 0.85045017105 0.40821231831 0.31500262506 0.85681739559 
0.40306900917 0.29742575353 0.86549020502 0.39712585328 0.27610946639 0.87524546227 0.39091451591 0.25208589828 0.88523360823 
0.3847986 0.22565919911 0.89499048224 0.37896127072 0.19613197334 0.90438963082 0.37353320773 0.16185499839 0.91338704951 
0.36870460565 0.11995445861 0.92177428996 0.36490314455 0.066343355504 0.92867876808 0.3628785468 -0.0044744813578 0.93182570221 
0.36364311326 -0.098585884877 0.9263069197 0.36800987344 -0.2202512783 0.9033593457 0.37571017199 -0.36580983584 0.85148401668 
0.38495856877 -0.51738678755 0.76427600538 0.39390959537 -0.64765859209 0.65220669942 0.40249484414 -0.73844894756 0.54100929039 
0.41133343768 -0.79036003002 0.45402183426 0.4195357624 -0.81443269389 0.40086048844 0.42435594435 -0.82172254324 0.38038676952 
0.42221860298 -0.81993815691 0.38656547976 0.40992669865 -0.81392402867 0.41168893267 0.38541633362 -0.80666647217 0.4480440296 