# vtk DataFile Version 4.2
vtk output
ASCII
DATASET POLYDATA
POINTS 128 float
0 0 0 -0.311506 -0.00932269 -0.120998 -0.920208 -0.0244498 -0.372418 
-1.41968 -0.0302289 -0.613088 -1.82469 -0.0325376 -0.835881 -2.25566 -0.042454 -1.06847 
-2.71078 -0.0646334 -1.30462 -3.16211 -0.102828 -1.53015 -3.61301 -0.164721 -1.73625 
-4.07333 -0.259568 -1.9146 -4.53752 -0.398528 -2.0513 -4.99486 -0.591397 -2.13422 
-5.43301 -0.83729 -2.17049 -5.84134 -1.1305 -2.17793 -6.22187 -1.45832 -2.19801 
-6.5796 -1.80512 -2.27612 -6.91011 -2.15248 -2.4302 -7.20619 -2.4838 -2.66415 
-7.46546 -2.80066 -2.95836 -7.68757 -3.11203 -3.28552 -7.87294 -3.42839 -3.62867 
-8.02197 -3.75989 -3.97572 -8.13272 -4.11005 -4.31898 -8.20233 -4.47876 -4.65337 
-8.22876 -4.86049 -4.97945 -8.21033 -5.24665 -5.301 -8.14496 -5.62401 -5.62664 
-8.03081 -5.97721 -5.96667 -7.86975 -6.29187 -6.32484 -7.6659 -6.5549 -6.70124 
-7.426 -6.75999 -7.09366 -7.15842 -6.90705 -7.49734 -6.87335 -7.02136 -7.895 
-6.58016 -7.13644 -8.26747 -6.26766 -7.21916 -8.65259 -5.91848 -7.215 -9.10489 
-5.57929 -7.26522 -9.49618 -5.33426 -7.60809 -9.60101 -5.27565 -8.10663 -9.39089 
-5.47273 -8.33167 -9.0233 -5.81048 -8.33332 -8.59718 -6.12657 -8.31697 -8.17797 
-6.40271 -8.29076 -7.77396 -6.67372 -8.19153 -7.37171 -6.93338 -8.02224 -6.9696 
-7.16033 -7.81134 -6.57022 -7.34776 -7.57239 -6.17119 -7.49514 -7.31328 -5.76756 
-7.6001 -7.05009 -5.35193 -7.65954 -6.80366 -4.91616 -7.67132 -6.60243 -4.45508 
-7.63488 -6.47755 -3.96704 -7.559 -6.45075 -3.46818 -7.45745 -6.53602 -2.98283 
-7.34491 -6.72066 -2.52602 -7.23578 -6.97836 -2.10667 -7.13694 -7.28917 -1.72399 
-7.05089 -7.63745 -1.3719 -6.9787 -8.0133 -1.04622 -6.92054 -8.4104 -0.74396 
-6.87521 -8.824 -0.462452 -6.84058 -9.25036 -0.199192 -6.81325 -9.68649 0.0484072 
-6.78896 -10.1299 0.283034 -6.7624 -10.5781 0.507864 -6.72758 -11.029 0.726419 
-6.67894 -11.4798 0.94238 -6.6114 -11.9276 1.1595 -6.52199 -12.3695 1.38103 
-6.40953 -12.8024 1.60974 -6.27518 -13.2241 1.84739 -6.12199 -13.6334 2.09488 
-5.95363 -14.0305 2.35237 -5.7742 -14.4162 2.6194 -5.58715 -14.792 2.89498 
-5.3952 -15.1601 3.17765 -5.19989 -15.5222 3.46555 -5.00159 -15.8804 3.75639 
-4.79943 -16.2358 4.04788 -4.59133 -16.5892 4.33768 -4.37445 -16.9405 4.6236 
-4.14517 -17.2888 4.90364 -3.90019 -17.6321 5.17635 -3.63667 -17.968 5.44095 
-3.35263 -18.2935 5.69738 -3.04724 -18.6051 5.94638 -2.72023 -18.8991 6.18932 
-2.3721 -19.1714 6.42822 -2.00367 -19.4176 6.66521 -1.6161 -19.6322 6.90245 
-1.21124 -19.8099 7.14155 -0.791763 -19.9451 7.38334 -0.361239 -20.0331 7.62776 
0.0755901 -20.0716 7.87357 0.514051 -20.0604 8.11933 0.949746 -20.0033 8.36341 
1.37956 -19.9061 8.60481 1.80244 -19.7772 8.84359 2.2184 -19.6251 9.08042 
2.629 -19.4585 9.3168 3.036 -19.2851 9.55444 3.44124 -19.112 9.79524 
3.8462 -18.9453 10.0411 4.25167 -18.7903 10.2936 4.6579 -18.6516 10.5545 
5.06426 -18.5334 10.825 5.46954 -18.4395 11.1067 5.87152 -18.374 11.401 
6.26716 -18.3414 11.7092 6.65173 -18.3471 12.0329 7.01899 -18.3965 12.373 
7.35951 -18.4951 12.7299 7.66253 -18.6466 13.1026 7.91502 -18.8507 13.4873 
8.10548 -19.104 13.879 8.22727 -19.3969 14.2702 8.27737 -19.719 14.6535 
8.2607 -20.0603 15.0238 8.18447 -20.4115 15.3768 8.05862 -20.765 15.7099 
7.89297 -21.1169 16.0233 7.69537 -21.4737 16.3234 7.47491 -21.8359 16.6128 
7.24593 -22.1791 16.8767 7.01601 -22.5009 17.116 6.7632 -22.9017 17.4038 
6.50092 -23.3952 17.7523 6.37527 -23.6488 17.9305 
LINES 1 129
128 0 1 2 3 4 5 6 7 8 9 10 11 12 13 14 15 16 17 18 19 20 21 22 23 24 25 26 27 28 29 30 31 32 33 34 35 36 37 38 39 40 41 42 43 44 45 46 47 48 49 50 51 52 53 54 55 56 57 58 59 60 61 62 63 64 65 66 67 68 69 70 71 72 73 74 75 76 77 78 79 80 81 82 83 84 85 86 87 88 89 90 91 92 93 94 95 96 97 98 99 100 101 102 103 104 105 106 107 108 109 110 111 112 113 114 115 116 117 118 119 120 121 122 123 124 125 126 127 

CELL_DATA 1
FIELD FieldData 2
Length 1 1 double
56.817617426 
Tortuosity 1 1 double
0.87178488854 
POINT_DATA 128
SCALARS MaximumInscribedSphereRadius float
LOOKUP_TABLE default
1.24 1.1535 1.06701 1.00211 0.939143 0.934082 0.930252 0.93 0.93 
0.93186 0.933883 0.93736 0.940998 0.888136 0.827728 0.883381 0.95787 0.94449 
0.915157 0.864035 0.808363 0.914205 1.05861 1.01868 0.929045 0.873049 0.82721 
0.946357 1.12099 1.13316 1.08523 1.06925 1.06622 1.21593 1.43542 1.57178 
1.67378 1.48084 0.995701 0.948639 0.970198 1.0492 1.13986 1.18936 1.23023 
1.23897 1.23982 1.24103 1.24234 1.27314 1.31303 1.39165 1.48349 1.53129 
1.56304 1.53145 1.47481 1.39991 1.31707 1.32847 1.3848 1.44462 1.50627 
1.53539 1.54595 1.51762 1.4651 1.39269 1.3068 1.26171 1.24668 1.28074 
1.35405 1.48321 1.66084 1.74134 1.73035 1.67901 1.58646 1.49335 1.3996 
1.3565 1.37434 1.45022 1.60193 1.71699 1.78 1.83673 1.88377 1.94163 
2.01764 2.02811 1.91877 1.76504 1.52291 1.36799 1.40285 1.43545 1.4626 
1.45921 1.37512 1.30532 1.27746 1.2663 1.30991 1.37717 1.53161 1.6676 
1.72667 1.76347 1.69431 1.64296 1.68912 1.72573 1.70187 1.66066 1.49071 
1.34257 1.38966 1.43805 1.50119 1.56016 1.55979 1.55945 1.56023 1.56173 
1.57136 1.581 
TEXTURE_COORDINATES TCoords 2 float
0 0 0.00787402 0 0.015748 0 0.023622 0 0.0314961 
0 0.0393701 0 0.0472441 0 0.0551181 0 0.0629921 0 
0.0708661 0 0.0787402 0 0.0866142 0 0.0944882 0 0.102362 
0 0.110236 0 0.11811 0 0.125984 0 0.133858 0 
0.141732 0 0.149606 0 0.15748 0 0.165354 0 0.173228 
0 0.181102 0 0.188976 0 0.19685 0 0.204724 0 
0.212598 0 0.220472 0 0.228346 0 0.23622 0 0.244094 
0 0.251969 0 0.259843 0 0.267717 0 0.275591 0 
0.283465 0 0.291339 0 0.299213 0 0.307087 0 0.314961 
0 0.322835 0 0.330709 0 0.338583 0 0.346457 0 
0.354331 0 0.362205 0 0.370079 0 0.377953 0 0.385827 
0 0.393701 0 0.401575 0 0.409449 0 0.417323 0 
0.425197 0 0.433071 0 0.440945 0 0.448819 0 0.456693 
0 0.464567 0 0.472441 0 0.480315 0 0.488189 0 
0.496063 0 0.503937 0 0.511811 0 0.519685 0 0.527559 
0 0.535433 0 0.543307 0 0.551181 0 0.559055 0 
0.566929 0 0.574803 0 0.582677 0 0.590551 0 0.598425 
0 0.606299 0 0.614173 0 0.622047 0 0.629921 0 
0.637795 0 0.645669 0 0.653543 0 0.661417 0 0.669291 
0 0.677165 0 0.685039 0 0.692913 0 0.700787 0 
0.708661 0 0.716535 0 0.724409 0 0.732283 0 0.740157 
0 0.748031 0 0.755906 0 0.76378 0 0.771654 0 
0.779528 0 0.787402 0 0.795276 0 0.80315 0 0.811024 
0 0.818898 0 0.826772 0 0.834646 0 0.84252 0 
0.850394 0 0.858268 0 0.866142 0 0.874016 0 0.88189 
0 0.889764 0 0.897638 0 0.905512 0 0.913386 0 
0.92126 0 0.929134 0 0.937008 0 0.944882 0 0.952756 
0 0.96063 0 0.968504 0 0.976378 0 0.984252 0 
0.992126 0 1 0 
FIELD FieldData 7
Curvature 1 128 double
0 0.01395465263 0.027163268517 0.041337038023 0.056455200467 0.072061480954 0.087273523351 0.10094475051 0.11201557674 
0.12000322967 0.12544409713 0.12995730337 0.13563884866 0.14390509165 0.1546279586 0.16626678953 0.17683562402 0.18487766654 
0.18990678357 0.19234237455 0.19310150202 0.19305974623 0.19274730346 0.19216199722 0.19079039691 0.1877017819 0.1817257127 
0.17184317973 0.15765886434 0.13972615044 0.12016675764 0.10525843701 0.11345590657 0.17946069972 0.36044014893 0.84632697411 
2.3685993576 6.1359022697 5.6525043798 2.1294057675 0.83037048367 0.40467205366 0.23518876178 0.15579591162 0.1172470126 
0.10454566016 0.11192193039 0.13372778778 0.16448003571 0.19953845665 0.23414747156 0.26297626863 0.28091194324 0.28477569495 
0.27460660422 0.25345333508 0.22574632353 0.19553859558 0.16560035194 0.13748443069 0.11181733226 0.088872088952 0.068981773426 
0.052881193371 0.042061224363 0.038069098788 0.040218550243 0.045350908243 0.050735578822 0.054898000518 0.057300201297 0.057912473406 
0.057046289831 0.055237156267 0.053133632054 0.051453899525 0.050871275004 0.051884649909 0.054762456315 0.059393703194 0.065575868469 
0.072981418707 0.08137098958 0.090499196908 0.10024351204 0.11033704211 0.12054256291 0.13036657507 0.1392017766 0.14626870307 
0.15066238466 0.15157109761 0.14839604015 0.14091294587 0.12932881448 0.11420022717 0.096414267268 0.076907714724 0.05681409465 
0.037767854132 0.024593390097 0.028204076529 0.044787500961 0.06518638815 0.08699862446 0.10977078324 0.13340304934 0.15788138843 
0.18299529152 0.20804889648 0.23192000337 0.25282265592 0.26852653464 0.27684661828 0.27623029307 0.26631250162 0.24817346496 
0.22391842875 0.19609035275 0.16705557683 0.13864901878 0.11203904372 0.087841662445 0.066223907213 0.046974676618 0.029657640616 
0.013666324441 0 
Torsion 1 128 double
0 0 0.01640906091 0.0069769344632 -0.0123592858 -0.040879981761 -0.077912596866 -0.12375118656 -0.17901843778 
-0.24289101579 -0.30938159679 -0.36316711436 -0.38281718463 -0.35648320784 -0.29417236882 -0.21789391707 -0.1452520979 -0.085211671968 
-0.041582114202 -0.015972240876 -0.0083492415529 -0.015958479955 -0.032932211751 -0.05122103232 -0.062693883182 -0.061137149391 -0.042217572296 
-0.00082364664683 0.074821805119 0.21644799408 0.50617846547 1.0798179535 1.6010567433 1.262126726 0.75976403231 0.41236594243 
0.1140648186 -0.030895865019 -0.11388506727 -0.36213955199 -0.59091954846 -0.69871644865 -0.80384348482 -0.95227215551 -1.1151024248 
-1.1332006465 -0.92555145845 -0.66884433674 -0.48051090166 -0.3599186865 -0.28302241665 -0.23211102439 -0.19662275572 -0.16995548918 
-0.14773444721 -0.12644514111 -0.10326427006 -0.075690058431 -0.040785940447 0.0050720537806 0.068076087422 0.15968439083 0.29982083746 
0.5120341747 0.7575322972 0.82666970378 0.64109594517 0.425580654 0.27929165959 0.18827852664 0.12692074589 0.078462544708 
0.033399277369 -0.01353535368 -0.062468543907 -0.10703569281 -0.13569091377 -0.1369120271 -0.10992467589 -0.064908735812 -0.015449671161 
0.028808007389 0.064023958757 0.089560468381 0.10554404535 0.11325578587 0.11426050609 0.11015007591 0.10276340206 0.093673492322 
0.084329992902 0.076077559283 0.070002108102 0.067253169913 0.069670329377 0.080539470699 0.10694443734 0.16648915733 0.31137802127 
0.72633946587 1.744104108 1.3096652158 0.48640029923 0.19673479644 0.079838902605 0.021246113726 -0.012367360765 -0.032940839072 
-0.046288277776 -0.054266230955 -0.058100652586 -0.058949049503 -0.057035604755 -0.05277748604 -0.046777640687 -0.039146580061 -0.03013718326 
-0.020231194033 -0.0096279006034 0.0012691751212 0.01176543186 0.020958818184 0.028075525244 0.031566607482 0.030569535874 0.025512920795 
0 0 
Abscissas 1 128 double
0 0.50216800375 1.0043360075 1.506502273 2.0086683837 2.5108380268 3.0130077451 3.5151749993 4.0173420801 
4.5195107969 5.0216796577 5.5238475259 6.0260152834 6.5281837164 7.0303522397 7.5325178403 8.0346829666 8.5368502417 
9.039017907 9.5411868484 10.043356056 10.545524164 11.04769201 11.549860454 12.05202906 12.554197276 13.056365373 
13.558532069 14.060698292 14.562866396 15.065035195 15.567204398 16.069373766 16.571540178 17.073705239 17.575873446 
18.078042954 18.580212257 19.082381358 19.584550065 20.08671871 20.588885384 21.091051657 21.593218169 22.095384731 
22.597553814 23.099723517 23.601891247 24.104058433 24.606225678 25.108392942 25.610562962 26.112733922 26.61490033 
27.117065078 27.61923347 28.121403303 28.623571369 29.125738667 29.62790755 30.130077186 30.632244264 31.134410007 
31.636577928 32.138747091 32.640920121 33.143095559 33.645256992 34.147408933 34.649584757 35.151778175 35.653945915 
36.15609313 36.658244521 37.160399536 37.66257736 38.164776668 38.666946552 39.169086375 39.671252603 40.173448122 
40.675626002 41.177782651 41.679938397 42.182092963 42.68425137 43.186415232 43.688587035 44.190771096 44.692949889 
45.195119838 45.697289074 46.199457008 46.701624466 47.20379098 47.7059568 48.208121109 48.710286216 49.212453231 
49.714621327 50.216792279 50.718965826 51.221146993 51.723322895 52.225481538 52.727642097 53.229809719 53.731977437 
54.234145554 54.736315459 55.238493873 55.740670414 56.242836697 56.745002233 57.24716303 57.74932447 58.251490679 
58.753656111 59.25581458 59.757973919 60.260143148 60.762314069 61.26450904 61.766703219 62.268860437 62.771017694 
63.273175394 63.775333094 
ParallelTransportNormals 3 128 double
-0.37663036014 0 0.92636362829 -0.41621480994 -0.00069230459179 0.90813523537 -0.45579925973 -0.0013846091836 0.88990684244 
-0.46279273257 -0.0015271564658 0.8864539482 -0.46688132265 -0.0016207030529 0.88431801635 -0.4489162145 -0.00024247761552 0.89332431437 
-0.4304823545 0.0011670303695 0.90256744074 -0.37875032054 0.010815026671 0.92352255644 -0.32467487819 0.021042818807 0.94530192076 
-0.24829579905 0.049315279126 0.96357770008 -0.1699553521 0.079174576231 0.98154537633 -0.14578494001 0.092698698647 0.98472483527 
-0.12765397543 0.10440160329 0.98625554758 -0.20238035422 0.03620053862 0.97136600552 -0.28950924014 -0.042672913521 0.95428328936 
-0.38737707467 -0.147388544 0.8957489932 -0.48698780078 -0.25629826429 0.83048725917 -0.53855925661 -0.32231120252 0.77316426852 
-0.58140833946 -0.38053547679 0.71728269613 -0.59849106767 -0.41060487891 0.68693675804 -0.61019382469 -0.43479559144 0.66192261714 
-0.61581911284 -0.45463109127 0.64297344664 -0.61999319598 -0.47342663407 0.6254724967 -0.62024901039 -0.5093803311 0.59416657355 
-0.6194483988 -0.54996013253 0.55913861558 -0.6026984731 -0.61668693992 0.49563406565 -0.58113332003 -0.69130774063 0.42353220148 
-0.53677317676 -0.76534373704 0.32956364138 -0.48474657381 -0.83918305083 0.22824082751 -0.4310488498 -0.88546675937 0.14005832799 
-0.37673293573 -0.9215569506 0.056736764054 -0.34271676234 -0.93844705434 0.0083696937953 -0.31692874734 -0.94755472562 -0.02582916046 
-0.30075650937 -0.95242695433 -0.046106164486 -0.28897643534 -0.95536457514 -0.060024134971 -0.50014517718 -0.68104090115 0.046845540828 
-0.80347671967 -0.2921026806 0.20364653257 -0.88299936943 0.10682522425 0.075180937612 -0.74079268529 0.51564999251 -0.3359006405 
-0.69071835435 0.57419316325 -0.4351402378 -0.65507580498 0.57786757914 -0.48553233264 -0.62290192459 0.57040579083 -0.53243799586 
-0.59143230203 0.56068297414 -0.57863579483 -0.58170411996 0.55551069037 -0.59405790436 -0.57654144832 0.55129397832 -0.60301739097 
-0.58518510954 0.56552968492 -0.57992513668 -0.59722183353 0.58430028251 -0.54895580384 -0.61161241106 0.62809968595 -0.46941166285 
-0.62665108261 0.67879035036 -0.37649326495 -0.62420506445 0.72794077006 -0.21933135031 -0.61636902746 0.77661637733 -0.042365037035 
-0.58826677183 0.7724112669 0.14531974374 -0.55324134511 0.75014150109 0.33666607507 -0.52431841187 0.70136631815 0.46717385739 
-0.49761877614 0.64293452058 0.57551656983 -0.48155943476 0.59400195402 0.6411029342 -0.46970783707 0.54882589344 0.68978114285 
-0.46266488661 0.51310434027 0.72190580586 -0.45771182353 0.48149181295 0.74683612823 -0.45463511414 0.45491210419 0.76525326742 
-0.45245273108 0.43073118738 0.78056602856 -0.45087337744 0.40920706458 0.79296411527 -0.4496086785 0.38906923019 0.80384135416 
-0.44829139458 0.37138640485 0.81290525753 -0.44694411883 0.35510379362 0.82093492522 -0.44553225016 0.34294954835 0.82691363714 
-0.44408018014 0.33336471527 0.83161587531 -0.44345467296 0.32934011993 0.83359640308 -0.44338930893 0.32908357341 0.83373248855 
-0.44494134568 0.33329529908 0.83118671879 -0.44768487698 0.34079867764 0.82666530024 -0.45154985087 0.3499216866 0.82067593725 
-0.45631125499 0.36033935449 0.81351316621 -0.46075154308 0.36949108044 0.80690092484 -0.46491317097 0.3775442389 0.80076642575 
-0.46736555608 0.38223337379 0.79715969407 -0.46820797965 0.38375388419 0.79593390461 -0.46659155591 0.38108867092 0.79811671214 
-0.46246306411 0.37414713574 0.80378189434 -0.45580812789 0.36379308471 0.81214945253 -0.44635057609 0.34965348826 0.82351478935 
-0.43536088265 0.33463252245 0.83550325259 -0.42252704158 0.31855070481 0.84824173599 -0.41021843288 0.30439497783 0.85954484051 
-0.39859626151 0.29275649959 0.86897201795 -0.3897882381 0.28441067767 0.87586764432 -0.38497569373 0.28073971273 0.87916901789 
-0.38444558035 0.27978400563 0.87970636074 -0.39052506899 0.28301908963 0.8759776353 -0.40076853617 0.28697902443 0.86992394896 
-0.41800295102 0.29215591892 0.85996686114 -0.43743130203 0.29608531217 0.8488576271 -0.4608697913 0.29773448756 0.83564246777 
-0.48386716184 0.29779105751 0.82269382079 -0.50598604597 0.29467595923 0.81027593224 -0.52609124045 0.29102843343 0.79896355465 
-0.54181410899 0.28622220325 0.79005706387 -0.555515649 0.28178967625 0.78226413121 -0.56438346258 0.27825080847 0.77713411813 
-0.57198961204 0.2751971725 0.77271017274 -0.57626179125 0.27342577036 0.77015202396 -0.58010576222 0.27186430028 0.7678297405 
-0.58269268143 0.27091910857 0.7661998653 -0.58561735878 0.26994106574 0.76431258956 -0.58964922498 0.26885533519 0.7615815414 
-0.59464267091 0.26775942682 0.75806365512 -0.6031789989 0.26662601885 0.75164671164 -0.61324674858 0.26590535245 0.74367531865 
-0.62970093046 0.26690592717 0.72922146144 -0.64792466516 0.26943179912 0.71207764814 -0.6745705234 0.27921726882 0.68213108465 
-0.70165653343 0.29192974144 0.64902705007 -0.73115184101 0.32066400692 0.59863968875 -0.75864422809 0.35186439646 0.54689940991 
-0.77344894659 0.39868665664 0.48658896113 -0.78588964726 0.44564320652 0.42739993091 -0.78079811814 0.49359568712 0.37652766028 
-0.77482202449 0.5403036348 0.32746429847 -0.76093145075 0.57587635084 0.29458581893 -0.74732249312 0.6100492534 0.2631435651 
-0.736919068 0.62828859398 0.24804934021 -0.72703576315 0.64557932366 0.23375750012 -0.72454766933 0.64938244594 0.23087418483 
-0.72252031089 0.65241986034 0.22854356385 -0.74202302529 0.61967589747 0.25204023813 -0.7599316339 0.58960834876 0.27361634977 
-0.7599316339 0.58960834876 0.27361634977 -0.7599316339 0.58960834876 0.27361634977 
FrenetTangent 3 128 double
-0.90887754285 -0.058031839959 -0.41300595352 -0.90887754285 -0.058031839959 -0.41300595352 -0.90968319675 -0.067673686589 -0.40975206369 
-0.91086494904 -0.083634139658 -0.40414152878 -0.91213196109 -0.10625343752 -0.39588570646 -0.9129217683 -0.13577910193 -0.38488684109 
-0.91234830852 -0.17219523294 -0.37144227774 -0.90923965153 -0.21505958911 -0.35641637057 -0.90228408951 -0.26340146002 -0.34132549375 
-0.89025209304 -0.31573392293 -0.32827321051 -0.872204826 -0.37020053717 -0.31970346225 -0.84758779718 -0.4248152277 -0.31800463579 
-0.81617281561 -0.47770312962 -0.32505638742 -0.77790826744 -0.52726053854 -0.34184068211 -0.73279385269 -0.5722211797 -0.36820658735 
-0.68086748072 -0.61166706934 -0.40284348076 -0.62230071888 -0.6450304647 -0.44348338739 -0.55751065022 -0.67209330257 -0.4873114687 
-0.48719577428 -0.69293416053 -0.53149085289 -0.41226655791 -0.70779032987 -0.57364547778 -0.33371270175 -0.71686624553 -0.61215898156 
-0.25250452659 -0.72016401929 -0.64622383845 -0.16958318982 -0.71742792103 -0.67567649053 -0.085941191816 -0.70824532756 -0.70071582509 
-0.0027471720019 -0.69229884987 -0.72160567869 0.078570833228 -0.66971250708 -0.73845228825 0.15634072358 -0.64139076949 -0.75111614212 
0.22880380506 -0.60923251775 -0.75926580202 0.29440272773 -0.57611078732 -0.7625112423 0.35207349552 -0.545604354 -0.76049992942 
0.40140077704 -0.5216147554 -0.7528581959 0.44256983434 -0.50809834702 -0.73889648226 0.47609650793 -0.5091716553 -0.71699117189 
0.50233953842 -0.52981895028 -0.68333510671 0.52048754954 -0.57752330327 -0.62893524702 0.52526698066 -0.66503610795 -0.53086869765 
0.49226758101 -0.8077303527 -0.32441378827 0.32287093854 -0.93630800547 0.13813643959 -0.040076182912 -0.71147543167 0.70156725243 
-0.27247662941 -0.34822715992 0.89693607995 -0.35872766056 -0.123040143 0.92529756768 -0.38591628741 0.012804422163 0.92244493922 
-0.38619093289 0.10257754702 0.91669755656 -0.37070334094 0.16475022559 0.9140220983 -0.34410921373 0.20658523873 0.91592106 
-0.30887470641 0.23041897849 0.92276947831 -0.26670690265 0.23629596726 0.93436162375 -0.21910939176 0.22323885782 0.94981865995 
-0.16765855256 0.19004073282 0.96735470724 -0.1141929231 0.1359840965 0.98410787103 -0.060956689671 0.061635051419 0.99623561592 
-0.010600266057 -0.030401040475 0.99948157116 0.034086320142 -0.13512284013 0.9902423647 0.070713442544 -0.24562918836 0.96678121148 
0.097901534288 -0.35449796697 0.92991745924 0.11561295399 -0.45544423306 0.88272543605 0.12504499416 -0.54440855596 0.8294474508 
0.12818955522 -0.61969388765 0.77430415442 0.12733664609 -0.68141057242 0.72073921106 0.12471208468 -0.73073420185 0.67117391351 
0.12226217264 -0.76928048358 0.62710405734 0.12156185571 -0.79869778754 0.58932551227 0.12378203926 -0.82046113292 0.55814114355 
0.12968372241 -0.83578488626 0.53352202958 0.13963042414 -0.84561512455 0.51520714843 0.15360570479 -0.85066666584 0.5027638721 
0.17125151352 -0.8514892417 0.49561980427 0.19192699587 -0.84854620432 0.49308555788 0.21480329034 -0.84228584823 0.49438254049 
0.23897161021 -0.83320010593 0.49866837978 0.26355797575 -0.82184785401 0.5050775171 0.28783875806 -0.80884148344 0.51276144943 
0.311324384 -0.79480446035 0.5209251364 0.33380766421 -0.78030397704 0.52886496077 0.35536606642 -0.76578632351 0.53599091929 
0.37632292151 -0.75152231661 0.54184431931 0.39718107505 -0.73757027873 0.54611104874 0.41853907853 -0.72376765705 0.54862137979 
0.44101087247 -0.70973290154 0.54935290919 0.46513884376 -0.69489842363 0.54841775761 0.49132787955 -0.67854560277 0.54605199362 
0.51980251135 -0.65984810367 0.54259177038 0.55057593454 -0.63792905987 0.53843537669 0.58343694801 -0.61191400506 0.53400615924 
0.61795608487 -0.58098159358 0.52970809422 0.65349338963 -0.54443063967 0.52587229276 0.68921522441 -0.5017513779 0.52271209018 
0.72412302565 -0.45270099979 0.52029573178 0.75709358018 -0.39740486116 0.51853513591 0.78696069383 -0.33643340213 0.51720927321 
0.81262109741 -0.27087713734 0.51601601575 0.83317879598 -0.20235491544 0.51465093231 0.84809394576 -0.13292637192 0.51290080797 
0.85729259513 -0.0649199091 0.51071989557 0.86119792649 -0.00069435964993 0.50826926847 0.86065911709 0.057594149778 0.50591382476 
0.85679902919 0.10818324697 0.50417438317 0.85081872757 0.14978772463 0.50365775123 0.84381283114 0.18158943459 0.50498037907 
0.83662265412 0.20316127297 0.50871213056 0.82974615395 0.21434909773 0.51534045476 0.82329565292 0.21517718007 0.52524570351 
0.81698692785 0.20576580611 0.53869545455 0.81015364866 0.18628147325 0.55583295898 0.80177207207 0.15691663392 0.57666169844 
0.7904932332 0.11789281183 0.60101724865 0.77467842667 0.06952295201 0.62852199197 0.75246349514 0.012286544449 0.65851934619 
0.72186377801 -0.053074928275 0.68999691157 0.6809404363 -0.12537739386 0.72152659779 0.62808056367 -0.20285177465 0.75124294543 
0.56236827028 -0.28306013039 0.77692914167 0.4840001221 -0.36291447157 0.79626438332 0.39461541939 -0.43895619348 0.80721504631 
0.29733992749 -0.5078546965 0.80850020084 0.19643486033 -0.56698840936 0.79996092986 0.09659580193 -0.61493266794 0.7826410831 
0.0021436849938 -0.65161810231 0.75854416705 -0.083594763739 -0.6781210604 0.73018062349 -0.15855793912 -0.69623641804 0.7000815882 
-0.22189385238 -0.70800327664 0.67044349392 -0.2737008497 -0.71532541973 0.64295986559 -0.31470801628 -0.71975212787 0.61880185756 
-0.34598137827 -0.72240785027 0.59868504554 -0.3686804786 -0.724012321 0.58299302203 -0.38386722193 -0.72497199309 0.57189296652 
-0.3923748674 -0.72548176102 0.56543627214 -0.3923748674 -0.72548176102 0.56543627214 
FrenetNormal 3 128 double
-0.081226559961 -0.94667955826 0.31176924146 -0.081226559961 -0.94667955826 0.31176924146 -0.075486877491 -0.94325587524 0.32337298148 
-0.063225097924 -0.93941405076 0.33690329209 -0.041780193413 -0.93668774065 0.34766433805 -0.0088163172628 -0.93625831077 0.35120171989 
0.037396967158 -0.93850898058 0.34322348435 0.09785551707 -0.94263935415 0.31914784316 0.17275089332 -0.94622088 0.27353825163 
0.26093940595 -0.94428901039 0.20057141192 0.35886772594 -0.92843535368 0.096029939677 0.45903691373 -0.8876152168 -0.037740412394 
0.55050653902 -0.8137716614 -0.1863282952 0.62432554939 -0.71020129472 -0.3253178897 0.6798038231 -0.59206329335 -0.43281383847 
0.72346956843 -0.47602313714 -0.49999375642 0.76262160796 -0.37184736113 -0.52928047677 0.80123261479 -0.28198780514 -0.52773968464 
0.83971973571 -0.20458606975 -0.50300626787 0.87626147256 -0.13568369536 -0.46233728653 0.90820443116 -0.070494042879 -0.41254733201 
0.93301926324 -0.0042762430454 -0.3598010119 0.94886368066 0.066378462557 -0.30862860405 0.95467417169 0.14263209841 -0.26125334525 
0.95039812953 0.22263074382 -0.21720715295 0.93729898919 0.30192923886 -0.17409577707 0.91837889872 0.37427552832 -0.12844464679 
0.898469379 0.43237568327 -0.076184273453 0.88414949095 0.46706208029 -0.011519149437 0.88281353371 0.46350743031 0.076165128195 
0.89728137371 0.38886056205 0.20898229511 0.8923938362 0.16857923751 0.41858605064 0.72115506058 -0.24053320356 0.64967619364 
0.3874650993 -0.56856862026 0.72567246116 0.13177770121 -0.6734163827 0.72742354442 -0.040829887615 -0.64284213283 0.76490974143 
-0.21032406653 -0.4720318147 0.85612484659 -0.43204179262 -0.01595028692 0.90171252502 -0.5283281844 0.61104062325 0.58949019187 
-0.41999361239 0.88175398625 0.21474466999 -0.27360930128 0.96159403555 0.0217913067 -0.10165321749 0.99322468098 -0.056314797995 
0.11471119865 0.99142368627 -0.062613219118 0.38527523253 0.92274681491 -0.010065325616 0.68523112657 0.72216157756 0.094556644747 
0.90981939859 0.35432321959 0.21606415253 0.95475496413 -0.067568982446 0.28961593719 0.86927778085 -0.3974357879 0.29394035826 
0.74749963048 -0.61525028003 0.25042243383 0.63090817345 -0.75526378376 0.17757109452 0.52723170549 -0.84550267324 0.084569251339 
0.43427232797 -0.90049343067 -0.022784347079 0.3484268765 -0.92704816853 -0.13849333902 0.2675165266 -0.92903219486 -0.25560533819 
0.19120100367 -0.91029886434 -0.36714868075 0.12066341155 -0.87566352836 -0.46760424101 0.058286768193 -0.83053438213 -0.55390910153 
0.00698575003 -0.7801619747 -0.62553856198 -0.029451896964 -0.7289316986 -0.68395260401 -0.046092233429 -0.67999151829 -0.7317698006 
-0.035982955092 -0.63486455745 -0.77178508708 0.012202767404 -0.59248126685 -0.80549180064 0.11680030726 -0.54651024438 -0.82926729166 
0.30386702471 -0.47867800871 -0.82373065699 0.57901969143 -0.35235218607 -0.73524426819 0.84611268817 -0.14957595614 -0.51158611422 
0.97048825796 0.059102106596 -0.23379367431 0.97748083133 0.21018872395 -0.018759656263 0.94310028602 0.31043586287 0.11912776989 
0.90191224204 0.3807383232 0.20394272948 0.86421700778 0.43378258155 0.25487572544 0.83334640652 0.47536956029 0.2820594758 
0.81130214599 0.50773567474 0.28981599768 0.79979546602 0.53138468543 0.27920875455 0.80004024554 0.54571880529 0.2492520633 
0.81073733641 0.55018212219 0.20001150911 0.82734064857 0.54529693927 0.1347542179 0.8428709041 0.53451598759 0.062139343683 
0.85129934495 0.52465053567 -0.005589339433 0.85044257147 0.52275855843 -0.058914533185 0.84051901522 0.53373205803 -0.093047704307 
0.82251057926 0.55817487172 -0.10916574361 0.79661835047 0.59430479935 -0.11045817833 0.76265059051 0.63884511189 -0.10119782507 
0.72029326262 0.6884118691 -0.085245025082 0.66977578008 0.73956580549 -0.066654510491 0.61163299784 0.78965542755 -0.04847042091 
0.54687550413 0.83655367528 -0.033243516084 0.47674823614 0.87874906819 -0.0226096106 0.40259780882 0.91521449447 -0.01724625866 
0.3259210069 0.94524298408 -0.017064533663 0.24826411315 0.96846186678 -0.021131557422 0.17118840786 0.98484529077 -0.027825927867 
0.096193357802 0.99474630822 -0.035023138109 0.024406876726 0.9989019598 -0.039989737083 -0.04387564696 0.9982753067 -0.03900435409 
-0.10984930041 0.99359435297 -0.026521556384 -0.17788589058 0.98401979707 0.0078516823667 -0.25908650339 0.96192575733 0.087023106964 
-0.38099343961 0.88307248717 0.27391053537 -0.54722743351 0.49412060636 0.6755641808 -0.45165743331 -0.31211883408 0.83581540806 
-0.29084744592 -0.65961102561 0.69305198802 -0.2315454983 -0.76938689479 0.595340649 -0.22637644885 -0.81326946782 0.53604708386 
-0.25109685808 -0.83265915214 0.49358799035 -0.29552817184 -0.83891170347 0.45704513282 -0.35385816335 -0.83572797233 0.41993232371 
-0.42219378478 -0.82378486883 0.37832644368 -0.49728369665 -0.80242807462 0.32987590109 -0.57536387388 -0.77104921899 0.27283605797 
-0.65267160203 -0.72884761724 0.20688385812 -0.72513787189 -0.67567415543 0.13281378858 -0.78874563279 -0.61247114413 0.052530223292 
-0.84025883858 -0.54129885954 -0.030994013196 -0.87775439464 -0.46529022925 -0.11424633585 -0.9007995388 -0.38846710708 -0.1940450917 
-0.91061383914 -0.31474391781 -0.26780347676 -0.90944676207 -0.24760128041 -0.33406615047 -0.90004055731 -0.18959804116 -0.39240231649 
-0.8850821887 -0.14225948111 -0.44316109855 -0.86699284928 -0.1059373394 -0.48692985061 -0.84771984014 -0.080148559911 -0.52435415607 
-0.82886781371 -0.063652732207 -0.55581154817 -0.81220674042 -0.054126996373 -0.58085323368 -0.79888952287 -0.049837223113 -0.59940952732 
-0.79106422871 -0.047496952517 -0.60988640382 -0.79106422871 -0.047496952517 -0.60988640382 
FrenetBinormal 3 128 double
-0.40907683637 0.31690711497 0.85570206406 -0.40907683637 0.31690711497 0.85570206406 -0.40838488327 0.32509787137 0.85295554465 
-0.40783284762 0.33242528771 0.85039155481 -0.40776181896 0.33365593585 0.84994353663 -0.40803935781 0.32401297966 0.85353352101 
-0.40770336126 0.29924855073 0.86268666044 -0.40460790138 0.25530456547 0.87812984518 -0.39501968391 0.18784492836 0.89926288271 
-0.37331198381 0.09289970273 0.92304269022 -0.3323743323 -0.030973477648 0.94263882103 -0.26623305186 -0.17796417957 0.94733769738 
-0.17551206669 -0.33102175615 0.92715700472 -0.071248409301 -0.46648734761 0.8816536841 0.029663640497 -0.56747156596 0.82285848738 
0.11406689819 -0.63187448848 0.76663118482 0.17649390458 -0.66758163518 0.72331505032 0.21727441607 -0.68467033701 0.69571427881 
0.23981460127 -0.69136588666 0.6815439588 0.24940352229 -0.6932696328 0.67614724676 0.25258769551 -0.69363778439 0.67458585824 
0.25635233268 -0.69379067381 0.67300667341 0.2662691444 -0.69346310489 0.66948462634 0.2849760296 -0.69140772377 0.66388554892 