# vtk DataFile Version 4.2
vtk output
ASCII
DATASET POLYDATA
POINTS 128 float
0 0 0 -0.309881 0.0952969 0.081233 -0.921929 0.272977 0.250009 
-1.43883 0.397706 0.411261 -1.87081 0.473198 0.559162 -2.33222 0.538131 0.711472 
-2.82004 0.588716 0.863706 -3.30534 0.611789 1.00638 -3.78847 0.604838 1.13515 
-4.27649 0.567688 1.24689 -4.76692 0.496163 1.3369 -5.254 0.384579 1.40028 
-5.73034 0.225903 1.43376 -6.18721 0.0131915 1.43595 -6.6115 -0.257541 1.41327 
-6.99007 -0.587532 1.37557 -7.31844 -0.967985 1.33725 -7.59683 -1.38642 1.31308 
-7.83481 -1.82991 1.3101 -8.04543 -2.2861 1.3311 -8.24135 -2.74731 1.3703 
-8.43474 -3.20826 1.41753 -8.6357 -3.66754 1.45576 -8.85157 -4.12434 1.46304 
-9.07616 -4.57062 1.40262 -9.29531 -4.99451 1.23615 -9.47993 -5.37931 0.963019 
-9.59764 -5.70925 0.60185 -9.64413 -5.99318 0.185786 -9.62834 -6.25086 -0.247687 
-9.56038 -6.49689 -0.680779 -9.45057 -6.74283 -1.1055 -9.30632 -6.99606 -1.51546 
-9.13344 -7.26172 -1.90531 -8.93661 -7.54447 -2.27176 -8.71987 -7.84827 -2.61205 
-8.48686 -8.17307 -2.9173 -8.24068 -8.5176 -3.17659 -7.98095 -8.89061 -3.39314 
-7.70598 -9.3026 -3.56989 -7.42188 -9.71824 -3.61635 -7.14249 -10.0723 -3.40095 
-6.91529 -10.2779 -2.97386 -6.79946 -10.2507 -2.49077 -6.76912 -10.0489 -2.0176 
-6.7585 -9.79662 -1.57052 -6.74756 -9.53477 -1.14608 -6.74207 -9.25813 -0.730139 
-6.7418 -8.9783 -0.311463 -6.74311 -8.71653 0.118933 -6.74619 -8.4858 0.565542 
-6.75349 -8.29331 1.02972 -6.76541 -8.14018 1.50887 -6.78094 -8.02427 1.99805 
-6.79909 -7.95134 2.49531 -6.81881 -7.93343 2.99995 -6.83751 -7.9932 3.5004 
-6.85148 -8.15908 3.97677 -6.85659 -8.43304 4.40333 -6.84867 -8.79661 4.75191 
-6.82685 -9.22325 5.02112 -6.79278 -9.68154 5.22994 -6.74797 -10.1539 5.39562 
-6.69375 -10.6341 5.53338 -6.63095 -11.1177 5.65512 -6.55997 -11.602 5.76996 
-6.48068 -12.0845 5.88596 -6.39252 -12.5635 6.01026 -6.29468 -13.0369 6.14809 
-6.18614 -13.5027 6.30289 -6.0663 -13.9594 6.47528 -5.93495 -14.4068 6.66318 
-5.79223 -14.8453 6.86319 -5.63856 -15.2766 7.07067 -5.47381 -15.702 7.28157 
-5.29721 -16.1227 7.49255 -5.10714 -16.5383 7.70165 -4.90102 -16.9475 7.90842 
-4.67557 -17.3475 8.11317 -4.42673 -17.734 8.31701 -4.15014 -18.101 8.52152 
-3.84116 -18.4397 8.72879 -3.49771 -18.7411 8.94018 -3.12108 -18.9954 9.1561 
-2.7157 -19.1974 9.376 -2.28995 -19.348 9.59814 -1.85131 -19.452 9.82125 
-1.40566 -19.5187 10.0448 -0.957205 -19.557 10.2686 -0.507949 -19.5749 10.4934 
-0.0593395 -19.5787 10.72 0.387743 -19.5727 10.9496 0.832494 -19.5598 11.1833 
1.27415 -19.5407 11.4225 1.71187 -19.5149 11.6681 2.14471 -19.4802 11.9213 
2.5718 -19.4341 12.1823 2.99256 -19.3745 12.4507 3.40674 -19.3003 12.7257 
3.81467 -19.2124 13.0059 4.21708 -19.113 13.2901 4.61528 -19.0069 13.5779 
5.01053 -18.8993 13.869 5.40387 -18.7961 14.1644 5.7959 -18.7031 14.465 
6.18638 -18.6251 14.7717 6.57469 -18.5661 15.0855 6.95963 -18.5297 15.4068 
7.33964 -18.5193 15.7359 7.71257 -18.5378 16.0727 8.07576 -18.5888 16.4168 
8.42541 -18.6763 16.7677 8.75661 -18.8047 17.1242 9.06189 -18.9801 17.484 
9.33249 -19.2075 17.8435 9.55718 -19.4885 18.1956 9.72717 -19.8213 18.5334 
9.84209 -20.1953 18.8513 9.90499 -20.5987 19.1458 9.92459 -21.0212 19.4183 
9.91319 -21.4532 19.674 9.89122 -21.8863 19.9291 9.87565 -22.3134 20.1967 
9.86576 -22.7316 20.4721 9.88335 -23.1245 20.7689 10.0478 -23.4245 21.1834 
10.393 -23.578 21.7169 10.5961 -23.6179 21.9951 
LINES 1 129
128 0 1 2 3 4 5 6 7 8 9 10 11 12 13 14 15 16 17 18 19 20 21 22 23 24 25 26 27 28 29 30 31 32 33 34 35 36 37 38 39 40 41 42 43 44 45 46 47 48 49 50 51 52 53 54 55 56 57 58 59 60 61 62 63 64 65 66 67 68 69 70 71 72 73 74 75 76 77 78 79 80 81 82 83 84 85 86 87 88 89 90 91 92 93 94 95 96 97 98 99 100 101 102 103 104 105 106 107 108 109 110 111 112 113 114 115 116 117 118 119 120 121 122 123 124 125 126 127 

CELL_DATA 1
FIELD FieldData 2
Length 1 1 double
57.469404201 
Tortuosity 1 1 double
0.69183816903 
POINT_DATA 128
SCALARS MaximumInscribedSphereRadius float
LOOKUP_TABLE default
0.93 1.05013 1.17026 1.21854 1.26021 1.23809 1.21397 1.11838 1.01864 
1.03383 1.05823 1.1366 1.22041 1.24121 1.25435 1.35644 1.47108 1.59135 
1.71253 1.72909 1.72631 1.56491 1.36996 1.29536 1.24958 1.32723 1.43756 
1.56028 1.68641 1.70912 1.70094 1.58255 1.42796 1.44126 1.51511 1.65193 
1.81362 1.86716 1.87419 1.83148 1.76613 1.7935 1.86598 2.05776 2.29031 
2.33338 2.29953 2.15705 1.96698 1.85911 1.7905 1.8987 2.09837 2.17 
2.17 2.17889 2.19314 2.25962 2.35948 2.35511 2.28222 2.22825 2.18749 
2.17 2.17 2.16745 2.16282 2.12258 2.05117 1.99628 1.95694 1.97548 
2.05272 2.06593 2.00915 1.9515 1.89283 1.87353 1.90426 1.98304 2.1276 
2.19553 2.15056 2.07148 1.93852 1.85439 1.85305 1.85355 1.85742 1.86096 
1.86384 1.87373 1.8988 1.96049 2.10871 2.25212 2.38309 2.48 2.48 
2.48 2.48 2.4657 2.40151 2.3344 2.25592 2.18998 2.17919 2.17125 
2.17746 2.1866 2.21246 2.24213 2.2971 2.35117 2.3982 2.44253 2.46208 
2.47779 2.45123 2.4198 2.31994 2.22741 2.28266 2.33966 2.46144 2.58207 
2.68604 2.79 
TEXTURE_COORDINATES TCoords 2 float
0 0 0.00787402 0 0.015748 0 0.023622 0 0.0314961 
0 0.0393701 0 0.0472441 0 0.0551181 0 0.0629921 0 
0.0708661 0 0.0787402 0 0.0866142 0 0.0944882 0 0.102362 
0 0.110236 0 0.11811 0 0.125984 0 0.133858 0 
0.141732 0 0.149606 0 0.15748 0 0.165354 0 0.173228 
0 0.181102 0 0.188976 0 0.19685 0 0.204724 0 
0.212598 0 0.220472 0 0.228346 0 0.23622 0 0.244094 
0 0.251969 0 0.259843 0 0.267717 0 0.275591 0 
0.283465 0 0.291339 0 0.299213 0 0.307087 0 0.314961 
0 0.322835 0 0.330709 0 0.338583 0 0.346457 0 
0.354331 0 0.362205 0 0.370079 0 0.377953 0 0.385827 
0 0.393701 0 0.401575 0 0.409449 0 0.417323 0 
0.425197 0 0.433071 0 0.440945 0 0.448819 0 0.456693 
0 0.464567 0 0.472441 0 0.480315 0 0.488189 0 
0.496063 0 0.503937 0 0.511811 0 0.519685 0 0.527559 
0 0.535433 0 0.543307 0 0.551181 0 0.559055 0 
0.566929 0 0.574803 0 0.582677 0 0.590551 0 0.598425 
0 0.606299 0 0.614173 0 0.622047 0 0.629921 0 
0.637795 0 0.645669 0 0.653543 0 0.661417 0 0.669291 
0 0.677165 0 0.685039 0 0.692913 0 0.700787 0 
0.708661 0 0.716535 0 0.724409 0 0.732283 0 0.740157 
0 0.748031 0 0.755906 0 0.76378 0 0.771654 0 
0.779528 0 0.787402 0 0.795276 0 0.80315 0 0.811024 
0 0.818898 0 0.826772 0 0.834646 0 0.84252 0 
0.850394 0 0.858268 0 0.866142 0 0.874016 0 0.88189 
0 0.889764 0 0.897638 0 0.905512 0 0.913386 0 
0.92126 0 0.929134 0 0.937008 0 0.944882 0 0.952756 
0 0.96063 0 0.968504 0 0.976378 0 0.984252 0 
0.992126 0 1 0 
FIELD FieldData 7
Curvature 1 128 double
0 0.020443293728 0.03881788659 0.05722167336 0.075762574826 0.094556118105 0.11363880728 0.1328654419 0.15180491488 
0.16966519986 0.18526335225 0.19714327202 0.20383470593 0.20426162407 0.19820382956 0.18654673218 0.1713130474 0.15550755565 
0.14292010046 0.13767313305 0.14279765111 0.15841418179 0.18148972845 0.20704793539 0.22930063638 0.24272317038 0.24377419547 
0.2324468492 0.21229279555 0.18911402579 0.16923995939 0.15821571312 0.16002209858 0.17671814921 0.20993926242 0.26409625457 
0.34944901602 0.48513236505 0.69790528771 0.99651889866 1.2886991658 1.3493660904 1.1028420581 0.75765077763 0.48212271273 
0.29926803989 0.18239790434 0.10815997523 0.069551185039 0.072718751817 0.10249222076 0.14108422133 0.18336592351 0.22736019073 
0.27014805897 0.30683203507 0.33100387747 0.33697227128 0.32278379057 0.29168059865 0.25024233153 0.20541078424 0.1623345658 
0.12398112853 0.091842124247 0.066866149007 0.050331945523 0.043332478548 0.044306632989 0.049228770318 0.055200814289 0.06122223027 
0.067368360229 0.074090071693 0.081869349187 0.090999095274 0.10148319825 0.11304023373 0.12513523321 0.13684414704 0.14709710652 
0.15465636774 0.15843504333 0.15779873712 0.15263096693 0.14360608466 0.1317310107 0.11833012994 0.10468943474 0.091783368435 
0.080393582527 0.07086046838 0.063154944007 0.05705336098 0.052006416714 0.047478223492 0.042984015639 0.038235155109 0.033441019374 
0.029437275984 0.028066687227 0.031277738346 0.039260581745 0.050743428894 0.064602122237 0.080182714335 0.097060902183 0.11505284521 
0.13376389671 0.1526128222 0.17062045115 0.18612789045 0.19698867824 0.20076545349 0.19543046267 0.18018733757 0.1558003196 
0.12456494191 0.08954192356 0.054533838864 0.026715023302 0.027374534791 0.044306813456 0.054779840809 0.05414952239 0.042323508791 
0.021898473215 0 
Torsion 1 128 double
0 0 -0.028112137972 -0.031799115332 -0.030161099858 -0.022718068397 -0.010124896839 0.0060724254365 0.02377395481 
0.040538787104 0.053890733728 0.061428484558 0.06059480236 0.048533110148 0.021617959649 -0.025038191894 -0.097075822266 -0.19663560605 
-0.30896651286 -0.38595077078 -0.37302437391 -0.27983299322 -0.16406143375 -0.062232217806 0.019534399988 0.087846906671 0.15221550269 
0.22172100923 0.30444565161 0.40434132492 0.50974482667 0.58049763722 0.56787072745 0.47388980438 0.34803896167 0.22907957087 
0.13028699948 0.053354859165 -0.00077019159596 -0.030445016196 -0.038944691215 -0.034854442173 -0.020213196034 0.012551631429 0.073200745125 
0.18023657281 0.3916527103 0.88013315971 1.7214081061 1.3217974955 0.58238389427 0.28102506685 0.15933140246 0.10377751513 
0.076370652731 0.062694042508 0.056696172639 0.055825183387 0.059185813675 0.067191556894 0.081375468406 0.10484826777 0.14375958667 
0.2096555494 0.32357470624 0.51243099009 0.74498609536 0.80126444911 0.57830219087 0.32169356227 0.14693296301 0.041322284943 
-0.018081601463 -0.044017533921 -0.046496724983 -0.034480990949 -0.01631931903 0.0024644217438 0.018171783554 0.029823751193 0.038084538942 
0.04373898953 0.048205534999 0.052594427774 0.058082401138 0.065667581847 0.076349775921 0.090859468457 0.1090209909 0.13008113127 
0.15167846407 0.16925550226 0.1796526989 0.18297965794 0.18407658533 0.19308194442 0.22441507112 0.29564030985 0.43064962009 
0.63710909602 0.7966970313 0.70972784942 0.4807293891 0.29410609127 0.17656131025 0.10489010373 0.060666680283 0.032462465505 
0.013550976361 0.00097889732716 -0.0079408453184 -0.014678637627 -0.020470065268 -0.026805101767 -0.035287406125 -0.048933025687 -0.072660313809 
-0.11965967608 -0.23265773172 -0.59585770162 -2.2070464773 -1.7170396248 -0.47733084882 -0.19347140198 -0.096564852543 -0.051829440482 
0 0 
Abscissas 1 128 double
0 0.50257977461 1.0051595492 1.507740974 2.0103225504 2.5129025473 3.0154824948 3.5180614617 4.0206403717 
4.5232181889 5.0257959184 5.5283765612 6.0309574977 6.5335380155 7.0361184824 7.5386978673 8.0412770996 8.5438572302 
9.0464375057 9.5490173814 10.051597183 10.554175665 11.056753867 11.559334045 12.061914696 12.564494611 13.067074332 
13.569654056 14.072233782 14.574812761 15.077391516 15.579972862 16.082555057 16.58513481 17.087713681 17.590293539 
18.092873788 18.595454866 19.098036301 19.600614988 20.103192424 20.605766621 21.108339241 21.610916804 22.113496057 
22.616072644 23.118648149 23.621227207 24.123807823 24.626388266 25.128968627 25.631547713 26.134126139 26.63670707 
27.1392894 27.64187019 28.144450052 28.647030703 29.149611859 29.65219202 30.154771527 30.657344439 31.159912742 
31.662492608 32.16508117 32.667654378 33.170215133 33.672807852 34.175428538 34.678021793 35.180589209 35.683158191 
36.185728762 36.688296625 37.19086153 37.693442875 38.196043594 38.698641714 39.201236535 39.703819712 40.206386951 
40.708957037 41.211531318 41.714106886 42.216684488 42.719263828 43.221846112 43.724424409 44.226995413 44.729574551 
45.232169845 45.734756244 46.237323408 46.739899955 47.242498662 47.74508886 48.247657044 48.75022722 49.25280306 
49.755378427 50.257952308 50.760524472 51.263090647 51.765665354 52.268273365 52.770874989 53.273448542 53.776020979 
54.278587843 54.781159649 55.283759744 55.786356012 56.28892688 56.79150112 57.294101594 57.79669578 58.299232361 
58.801773037 59.304358832 59.806945588 60.30954585 60.812144751 61.314716229 61.817288128 62.319875656 62.822462583 
63.325040759 63.827618934 
ParallelTransportNormals 3 128 double
0.26267455119 0 0.96488449058 0.28508032495 -0.0056178323274 0.95815977311 0.3074860987 -0.011235664655 0.95143505565 
0.30667845575 -0.011269039531 0.95174161624 0.30373835858 -0.010789409366 0.95269409117 0.28664649683 -0.0096552180051 0.95780822564 
0.26911322894 -0.0085006102977 0.96305216599 0.23610694479 -0.010119171642 0.97103730373 0.2022025377 -0.0118987001 0.97918155281 
0.15539305249 -0.021032028535 0.98638254886 0.10754860992 -0.030755114679 0.9935078982 0.061443899509 -0.049311436613 0.99563332877 
0.015514639985 -0.068758584793 0.9972545207 -0.0005700848438 -0.07951611869 0.99670779759 -0.013027887496 -0.089217628257 0.99589761387 
0.0025072953169 -0.067731617318 0.99717407653 0.021989317057 -0.041848357642 0.9987447435 0.042231810405 -0.0036824590421 0.9980904586 
0.062596942652 0.036464222667 0.99707736261 0.068363668988 0.04868159057 0.99644243644 0.071431819752 0.055736109568 0.99587741653 
0.043662044441 -0.0042264761249 0.99574294106 0.0093705914907 -0.078361997833 0.99569951816 -0.067734135642 -0.23601909713 0.9476292332 
-0.15509665597 -0.41368744497 0.88805201194 -0.21706860796 -0.56721502755 0.76781528473 -0.27231620648 -0.71434925035 0.63151369615 
-0.28513118818 -0.78468417178 0.5433483335 -0.28625521932 -0.83385950179 0.46844536847 -0.28467966126 -0.85001758228 0.44302998345 
-0.28229760997 -0.85631187018 0.43239884701 -0.28797147058 -0.84770094905 0.44480982736 -0.2962911665 -0.83419465061 0.46478862213 
-0.31404412373 -0.80846396866 0.49534783164 -0.33519949852 -0.77832415868 0.52972321751 -0.36682881165 -0.73351640512 0.56776366791 
-0.40259302386 -0.682918044 0.60725101168 -0.45917655183 -0.60141578085 0.64354111403 -0.52471613499 -0.50661927421 0.67845582678 
-0.65469295622 -0.34059503808 0.62265782245 -0.8140013348 -0.1421482417 0.52556777421 -0.90979555236 -0.065491738625 0.36505220325 
-0.97467938281 -0.0481068224 0.17366938272 -0.99269412488 -0.05345971476 0.10368692606 -0.99469369897 -0.066582116552 0.075186975005 
-0.99532973274 -0.073009614135 0.062800081444 -0.9954121276 -0.076718776638 0.056955580133 -0.99542801182 -0.081040734616 0.049813561097 
-0.99541474921 -0.085631236738 0.042102933445 -0.99525859114 -0.0913665791 0.029695821941 -0.99503421948 -0.097648430335 0.015046764348 
-0.99467808882 -0.10208475723 0.00063625193166 -0.99425379461 -0.10556632971 -0.013650852707 -0.99375996946 -0.1070489137 -0.028153158154 
-0.99322725212 -0.10741336156 -0.042775836377 -0.99282388051 -0.10492176908 -0.056052755936 -0.99249845798 -0.10070900873 -0.068518665743 
-0.99237874644 -0.098733776293 -0.073726086361 -0.99239049598 -0.098188452235 -0.074294917031 -0.99200575815 -0.10336466391 -0.071795377541 
-0.99136037873 -0.11230208044 -0.067278762686 -0.99025197417 -0.12355973249 -0.063083099896 -0.98882001958 -0.13643870538 -0.059111710145 
-0.98691772792 -0.1507701646 -0.055215694649 -0.98466175486 -0.16619385622 -0.051376358655 -0.98163683559 -0.18399647396 -0.046754112854 
-0.97798821934 -0.20372865326 -0.041496844113 -0.97327342718 -0.22581576864 -0.034751905239 -0.96762572315 -0.24996347064 -0.026705243921 
-0.96122444791 -0.27416126408 -0.017621298149 -0.95411338599 -0.29840623851 -0.0075603369392 -0.94671532241 -0.32132226676 0.002587614348 
-0.93902616507 -0.34289040043 0.012823796037 -0.930353639 -0.36513916875 0.023651075932 -0.92060643803 -0.38813176893 0.035124337743 
-0.9077779352 -0.41526049263 0.048798876573 -0.89131853939 -0.44726307244 0.065067319433 -0.86836670568 -0.48582154384 0.085269796543 
-0.83716902708 -0.53270645074 0.11046876909 -0.79503076516 -0.58516919018 0.14106886698 -0.73791686006 -0.64526695489 0.17906211052 
-0.67088365356 -0.70258762663 0.22060495655 -0.58923589766 -0.75581668336 0.26737759033 -0.50919780649 -0.79889796085 0.31174811661 
-0.43170313945 -0.82594477719 0.35232308346 -0.36444384466 -0.84577490026 0.38717163815 -0.31453285919 -0.85337318417 0.41231428603 
-0.27381745724 -0.85864396289 0.43282002838 -0.24992963899 -0.85965549168 0.44484040213 -0.23119151961 -0.86029084835 0.45431084713 
-0.22268123749 -0.8601790881 0.45871686859 -0.21565564481 -0.86004528338 0.46239004115 -0.21184038995 -0.85986381199 0.46447857756 
-0.20689755467 -0.85953404798 0.46728407234 -0.1992911392 -0.85885398589 0.47178317234 -0.1902845183 -0.85783071287 0.47729148625 
-0.17765575945 -0.85591960059 0.48541049704 -0.16545907547 -0.85387963648 0.4933852537 -0.15449126997 -0.85147320062 0.50094973237 
-0.14621728369 -0.84965964837 0.50665467945 -0.1464032732 -0.84970805512 0.50651974241 -0.15011336356 -0.85062768297 0.50371725458 
-0.16611959673 -0.85458713846 0.49160726197 -0.18492799761 -0.85882914719 0.47714715112 -0.21467582377 -0.86417421984 0.45351237786 
-0.24635665691 -0.86903579573 0.42794912697 -0.28653125613 -0.87177285352 0.39391201229 -0.32825262616 -0.87333835004 0.35794871301 
-0.37769253405 -0.86905764109 0.31237356404 -0.42872812695 -0.8626429333 0.26430303053 -0.48890003305 -0.84400972264 0.20194483087 
-0.5503090879 -0.82154419496 0.13640311003 -0.61992741037 -0.77364880992 0.049736704335 -0.68830178077 -0.7212112975 -0.038528442076 
-0.74699537028 -0.63342568704 -0.13923543317 -0.80230549312 -0.54479412098 -0.23769268836 -0.82662273267 -0.44841351941 -0.31554214415 
-0.84908188507 -0.35517695619 -0.39003812514 -0.85106494839 -0.29658764246 -0.42757887039 -0.85293907474 -0.24256150673 -0.46221260696 
-0.85328166813 -0.25268859346 -0.4559770251 -0.85315113624 -0.26733902177 -0.44602401775 -0.84348483398 -0.37315673565 -0.36114684546 
-0.83096346098 -0.48012101703 -0.27190826475 -0.71262708479 -0.62957953243 -0.021026598166 -0.60188771867 -0.76944304515 0.21374885822 
-0.60188771867 -0.76944304515 0.21374885822 -0.60188771867 -0.76944304515 0.21374885822 
FrenetTangent 3 128 double
-0.9502444293 0.15127503242 0.27230752678 -0.9502444293 0.15127503242 0.27230752678 -0.95319552515 0.13721097186 0.26942798674 
-0.95759829733 0.11450956764 0.26437295601 -0.96289715493 0.083260862745 0.25670352113 -0.96829454901 0.043551543735 0.24598562844 
-0.97272828769 -0.0045192008513 0.23190354711 -0.97486145122 -0.060774620073 0.2143632349 -0.97311161135 -0.12483622957 0.19357093697 
-0.96575280697 -0.19595020311 0.17007361267 -0.95112048716 -0.27279999246 0.14474108959 -0.92792268438 -0.35337908967 0.11867059789 
-0.89560511761 -0.43501970991 0.093001748895 -0.85465491663 -0.51463767364 0.068651572062 -0.80668727227 -0.58918348657 0.046026773834 
-0.75421235812 -0.65616201566 0.024801775569 -0.70011885069 -0.71401599897 0.0038403273931 -0.64703863803 -0.76222759098 -0.018710971216 
-0.59680043573 -0.80111632512 -0.045187094774 -0.55009948418 -0.83144048707 -0.078085043121 -0.50640871063 -0.85394541432 -0.11969731472 
-0.46409214214 -0.86898966318 -0.17168415443 -0.42069201222 -0.8763536204 -0.23456888725 -0.37341420135 -0.87532621551 -0.3071902516 
-0.31980831536 -0.86515482612 -0.38630268996 -0.2585395839 -0.84579475429 -0.46667817303 -0.18993683943 -0.81863931211 -0.54199047381 
-0.11593328872 -0.78673694785 -0.60630392334 -0.039378894449 -0.75422865924 -0.65542995983 0.03690330173 -0.7253081814 -0.68743449747 
0.11084414759 -0.70329601014 -0.7022024616 0.18138153033 -0.69019171417 -0.70052561562 0.24838170758 -0.68667424728 -0.6832166607 
0.31244571654 -0.69231814252 -0.65044082263 0.37468839929 -0.70580394089 -0.60120662044 0.43653841787 -0.72493087595 -0.53283152573 
0.49939802325 -0.74620354025 -0.44020664567 0.56374089125 -0.76357065486 -0.31489055651 0.62673291868 -0.7656283547 -0.14497955417 
0.67706180153 -0.73154788935 0.080156113323 0.68974481555 -0.63285809241 0.35177084059 0.6384274863 -0.45897400052 0.61786180622 
0.53102527694 -0.24888392255 0.80998083209 0.40809229556 -0.05995080155 0.91097013107 0.30018292585 0.081878072431 0.95036108521 
0.21563088892 0.17824920357 0.96006798779 0.15206445278 0.23828232083 0.9592173569 0.10485601507 0.2697764895 0.95719687725 
0.069930225852 0.27775181257 0.95810421882 0.044242979224 0.2649825943 0.96323765682 0.025665027621 0.23272842118 0.97220305921 
0.012779507546 0.18135232562 0.98333515049 0.0047090145381 0.11091036696 0.99381925705 0.00098190421734 0.021812261492 0.99976160214 
0.0013855093073 -0.084345621412 0.99643559577 0.0057976646002 -0.20387804053 0.97897912729 0.013997863988 -0.33049870247 0.94370263721 
0.025512196339 -0.45581891758 0.88970682936 0.039591193748 -0.57114434975 0.81989430363 0.055352729367 -0.66984446604 0.74043532241 
0.072015087639 -0.74883326706 0.65883424721 0.089059018586 -0.80842948144 0.58181634967 0.10625691497 -0.85112500965 0.51409696165 
0.12360882785 -0.88020909435 0.45820607581 0.14124770925 -0.89883287225 0.41490788424 0.15936371994 -0.9095761542 0.38376350072 
0.17815573927 -0.914367048 0.36358414995 0.19781048911 -0.91457083808 0.35274805814 0.21850674445 -0.91112794127 0.34942907331 
0.24042962587 -0.90468460081 0.35176607008 0.26379832318 -0.89568191343 0.3580004953 0.28888353149 -0.88439374341 0.3665978885 
0.31601200416 -0.87092432205 0.37633394543 0.34555400138 -0.85518615093 0.38632768396 0.37787989458 -0.83687288982 0.39604362329 
0.41330086478 -0.81545540244 0.40523435418 0.45197863627 -0.79021545805 0.41385364831 0.49382514014 -0.76032206781 0.42195625861 
0.53841499504 -0.72494129737 0.42961541928 0.58491218507 -0.68340652343 0.43684466288 0.63206223129 -0.63541337923 0.44356191594 
0.67827592712 -0.5811960295 0.44961421462 0.72180790605 -0.52165829752 0.45482520532 0.76102449714 -0.45835002736 0.45908274545 
0.79466427241 -0.39330440474 0.46240711432 0.82202698891 -0.32872578477 0.46498493301 0.84301281991 -0.26664962864 0.46714811463 
0.85801910529 -0.2086824766 0.46931315656 0.86776751894 -0.15583658543 0.47190517238 0.87311233855 -0.10854477955 0.47528189016 
0.87489281076 -0.066747464377 0.47969505488 0.8738448971 -0.030035147119 0.48527619532 0.87057771641 0.00215964887 0.49202619402 
0.8655804803 0.030427959494 0.49984454723 0.85924913191 0.05525390307 0.50856458342 0.85192513695 0.076921413976 0.51798325948 
0.84391640685 0.095480658244 0.52790959657 0.83551175041 0.11072881035 0.53820000509 0.82697835814 0.12226295681 0.54877915828 
0.81854046362 0.12953451566 0.55965374891 0.81035005289 0.13190411268 0.57090638185 0.80245015963 0.12872101516 0.58267026831 
0.79473753156 0.11936807896 0.59509958633 0.78693912333 0.10329274927 0.60832345354 0.77859410528 0.08003154337 0.62240354376 
0.76904276805 0.049219110735 0.63729953715 0.75743200113 0.010615898481 0.65282774632 0.74273380802 -0.035875495111 0.66862503639 
0.72378630973 -0.090140411639 0.68411116351 0.69936983627 -0.15170808854 0.69847440038 0.66835507928 -0.21961668761 0.71068276926 
0.62993693411 -0.29222093111 0.71957375332 0.58396096567 -0.36707112359 0.72404998502 0.53126815229 -0.44098303346 0.72338655957 
0.47391492069 -0.51035702169 0.71759344922 0.41508547734 -0.57177027556 0.70766008683 0.35862568386 -0.62259856393 0.69552760339 
0.30835083392 -0.66141766293 0.68370054731 0.26737422517 -0.68798779722 0.67467311684 0.23767434011 -0.70292826472 0.67037509106 
0.21992269127 -0.70737200762 0.67175803136 0.21347237048 -0.70278734141 0.67861587058 0.21643982519 -0.69103544308 0.6896548546 
0.22589831209 -0.67457806113 0.70279043252 0.23827070423 -0.65656934844 0.71564220264 0.24993576002 -0.64056082377 0.72609499855 
0.25789305512 -0.62983649821 0.73266442362 0.25789305512 -0.62983649821 0.73266442362 
FrenetNormal 3 128 double
-0.20665709922 -0.9602385563 -0.1877092388 -0.20665709922 -0.9602385563 -0.1877092388 -0.19525697845 -0.95971648204 -0.20203709182 
-0.17606899979 -0.95892473541 -0.22240292068 -0.14838085388 -0.95787184821 -0.24589559695 -0.11145602138 -0.95656393952 -0.269375175 
-0.06465757248 -0.95489551504 -0.28981710383 -0.0076357096838 -0.9524039347 -0.30474323799 0.059469716087 -0.94806849735 -0.31245716058 
0.13580546661 -0.94027006469 -0.31216835313 0.21959426476 -0.92697793239 -0.30412213293 0.30806801345 -0.90620525185 -0.2896310422 
0.39760025447 -0.87655354039 -0.2712340843 0.48407428856 -0.83764976489 -0.25301176759 0.56345310964 -0.79027074594 -0.24081682116 
0.6321742385 -0.73581585901 -0.24275657314 0.6868978259 -0.67497745778 -0.26940083197 0.72296945535 -0.60554854409 -0.33260506217 
0.73213849898 -0.52064087753 -0.43921099139 0.70511813915 -0.41234475445 -0.57687105433 0.64673616104 -0.28432571912 -0.70773669076 
0.58483622366 -0.15503447165 -0.79619777951 0.54753699928 -0.039112149035 -0.83586689982 0.54412515049 0.061526624008 -0.83674505983 
0.57043189686 0.14973269976 -0.80758130839 0.61836290636 0.22624939721 -0.75262110408 0.6807791364 0.28795698369 -0.67351358041 
0.75277815579 0.32863268176 -0.57037321873 0.83044878931 0.34008585218 -0.44124417445 0.90728871286 0.31266710792 -0.28118760844 
0.96750858821 0.23791915624 -0.085566388417 0.98333877497 0.11854973313 0.13780716387 0.93349429394 -0.018643418429 0.35810728299 
0.8312901879 -0.13209209681 0.53991508728 0.71264002604 -0.19556088215 0.67372111045 0.60179661677 -0.20496505976 0.77190035388 
0.50215743484 -0.1647434915 0.84893903941 0.40367380235 -0.07789812178 0.91158068426 0.28909480116 0.055681329047 0.95567975051 
0.13937791406 0.23441409194 0.96209346249 -0.052965248731 0.44043373257 0.89622140659 -0.26168852185 0.62548932004 0.73503892961 
-0.43580085576 0.73956171103 0.51295817539 -0.55194462412 0.77862416979 0.29849880088 -0.62661400745 0.76811302313 0.13174699 
-0.68949547743 0.72400151333 0.020440041555 -0.77183043041 0.63484521941 -0.035345920259 -0.90288426455 0.42931567258 -0.02209203717 
-0.99114671703 -0.089319564611 0.098235435034 -0.6750634423 -0.70282045728 0.22434962381 -0.33731665219 -0.91347016962 0.22757356035 
-0.1638278235 -0.96974654639 0.18097535745 -0.07186350574 -0.99122311323 0.11096114786 -0.016342777501 -0.99962821361 0.021825402161 
0.021469366084 -0.99620437072 -0.08435590124 0.050093175616 -0.97770724541 -0.20390982328 0.073531814365 -0.94089938463 -0.3306076531 
0.09409050531 -0.88495071258 -0.45608027046 0.11349258072 -0.81265730907 -0.57158335537 0.13374469037 -0.72991507932 -0.67032554389 
0.15771495644 -0.64368949687 -0.74885901486 0.1894348499 -0.55972739318 -0.80673396046 0.23497410787 -0.48088720193 -0.84470981269 
0.3037579653 -0.40602007376 -0.86190416998 0.41031452222 -0.32826309694 -0.85081451095 0.57245367084 -0.23156317782 -0.78655914553 
0.78288647861 -0.092128928321 -0.61530563314 0.94658357102 0.084733570991 -0.31112660609 0.97258354319 0.23254663027 -0.0018210598105 
0.92710102317 0.32137993996 0.19286945594 0.88318581934 0.37350530078 0.28368397701 0.85793680075 0.40907666823 0.31080657237 
0.84730236384 0.43753491732 0.30106793314 0.84338922795 0.46353464143 0.27171721765 0.83925934463 0.49024676622 0.23516347648 
0.83064506685 0.51996767116 0.1991541962 0.81511919716 0.55432813872 0.16822903749 0.79184888211 0.5937160188 0.14309659994 
0.76031004204 0.63775128737 0.12329612899 0.72073755863 0.68497062362 0.10654865724 0.67329937613 0.73367656487 0.09157864524 
0.61871044883 0.78181249336 0.077243807086 0.55801418088 0.8274046822 0.063416605099 0.49264967871 0.86874987375 0.050694683319 
0.42429639057 0.90462752392 0.040269292432 0.35454689866 0.93442662069 0.033814008907 0.28462075541 0.95806371051 0.03324082131 
0.21508904885 0.97574863362 0.040636252972 0.14583427745 0.98760927114 0.057968017808 0.076402921607 0.99331798101 0.086498451894 
0.0061572721612 0.99191046655 0.12679004039 -0.064756192396 0.98200841468 0.17738689084 -0.13492248108 0.96270684976 0.23450254907 
-0.2026287067 0.93407045219 0.29403060652 -0.26652016149 0.89691755121 0.35285394974 -0.32671102704 0.85110526243 0.41094979872 
-0.38553611846 0.79221244177 0.47303419376 -0.44642756392 0.70784416562 0.54741124155 -0.51049163018 0.57229055328 0.64178019457 
-0.566945915 0.33911105873 0.75071700348 -0.5739251282 -0.017668776812 0.81871714379 -0.4982495169 -0.39278687866 0.77295917542 
-0.39358118599 -0.64503402032 0.6549999715 -0.31665558366 -0.77855606781 0.54182994621 -0.27635818746 -0.8467443552 0.45458788936 
-0.26482248843 -0.88290195165 0.38775403725 -0.27453062027 -0.9020084086 0.33318728868 -0.29977922593 -0.91071191377 0.28414120754 
-0.33694747267 -0.91136103263 0.23640530634 -0.38328939675 -0.90442977134 0.18733933664 -0.43606058789 -0.88971117751 0.1351487488 
-0.49300828396 -0.86636059536 0.079763091381 -0.55129589115 -0.83402477455 0.021806325803 -0.60842433628 -0.79277462302 -0.036444809234 
-0.66208247326 -0.74379501567 -0.091737523817 -0.71116595769 -0.68902952609 -0.13957540183 -0.75642805365 -0.63042632099 -0.17429645278 
-0.80105748222 -0.56817350457 -0.18837669412 -0.85324941803 -0.49438031711 -0.16599256817 -0.92745802436 -0.36933144219 -0.058445691623 
-0.9377016269 0.036582537181 0.34551031373 -0.087392481057 0.67810571481 0.72975008996 0.34022740508 0.71550551161 0.61016159802 
0.46397539347 0.70885939608 0.53126753227 0.51213099389 0.71103101142 0.48182646866 0.53260418687 0.71720607937 0.44938649272 
0.54038751304 0.72264296345 0.43100868104 0.54038751304 0.72264296345 0.43100868104 
FrenetBinormal 3 128 double
0.2330844652 -0.23464394208 0.94372339832 0.2330844652 -0.23464394208 0.94372339832 0.23085277388 -0.24518854644 0.94158885586 
0.2280465046 -0.2595205401 0.93842627894 0.22541559668 -0.27486205838 0.93468639534 0.2235692771 -0.28825109305 0.93108973021 
0.22275339876 -0.29690761555 0.92856167871 0.22268104288 -0.29871925067 0.92799782458 0.22252448118 -0.29254408235 0.93000043826 
0.22108457899 -0.27838053695 0.93467956305 0.21713631153 -0.25747247808 0.94157301642 0.20988947308 -0.23219659881 0.94975320404 
0.19951318492 -0.20594111494 0.95800978399 0.18771536067 -0.18300529023 0.96502435571 0.17825890721 -0.16832993573 0.96947862005 
0.17753718214 -0.16741096389 0.96977013675 0.19494863859 -0.18597468832 0.96302047933 0.24219035391 -0.2287357871 0.94288057153 
0.3283328467 -0.29520452278 0.89724680635 0.44743599246 -0.37239564973 0.81309440579 0.57033547654 -0.43581660684 0.69626239982 
0.66527067807 -0.4699162456 0.58016691307 0.72334049056 -0.48007767269 0.4962902003 0.75132526567 -0.47960243013 0.45331209357 