# vtk DataFile Version 4.2
vtk output
ASCII
DATASET POLYDATA
POINTS 128 float
0 0 0 -0.315271 0.11862 0.00252378 -0.945506 0.297229 -0.00201868 
-1.49302 0.317368 -0.0265181 -1.95237 0.20629 -0.0565035 -2.42124 0.0523371 -0.0717381 
-2.89216 -0.137831 -0.0657215 -3.33452 -0.375892 -0.0360028 -3.74908 -0.651007 0.0188405 
-4.14507 -0.94716 0.0991988 -4.52489 -1.25808 0.201653 -4.8893 -1.58065 0.321218 
-5.24261 -1.91126 0.451189 -5.59053 -2.24637 0.583785 -5.9392 -2.58395 0.708332 
-6.29461 -2.9225 0.811752 -6.66029 -3.26021 0.872221 -7.03629 -3.59505 0.865155 
-7.40468 -3.92437 0.772152 -7.74002 -4.24577 0.58093 -8.02089 -4.56103 0.305453 
-8.2296 -4.87392 -0.0282975 -8.36421 -5.18843 -0.39648 -8.43095 -5.50823 -0.777488 
-8.43939 -5.83302 -1.1599 -8.40026 -6.16057 -1.53782 -8.31813 -6.48978 -1.90698 
-8.19606 -6.81971 -2.26503 -8.05753 -7.14464 -2.62051 -7.93108 -7.45764 -2.98546 
-7.76348 -7.77075 -3.33833 -7.47018 -8.10285 -3.64444 -7.21813 -8.40953 -3.97009 
-7.32271 -8.60464 -4.42863 -7.6532 -8.6134 -4.66571 -7.86499 -8.44361 -4.29264 
-8.02658 -8.23107 -3.69411 -8.21927 -8.08741 -3.21988 -8.41143 -7.9933 -2.80786 
-8.56247 -7.91221 -2.34579 -8.68348 -7.84521 -1.8523 -8.79152 -7.79785 -1.36255 
-8.88711 -7.76429 -0.874953 -8.96772 -7.73696 -0.382014 -9.03335 -7.7115 0.114927 
-9.08365 -7.68505 0.61305 -9.11455 -7.65781 1.1122 -9.12054 -7.63252 1.61263 
-9.09424 -7.61953 2.11323 -9.0281 -7.63227 2.61118 -8.91652 -7.68867 3.09709 
-8.75647 -7.80553 3.55913 -8.55532 -7.98691 3.98296 -8.32399 -8.23113 4.35563 
-8.07457 -8.52755 4.67608 -7.81874 -8.86318 4.94777 -7.56345 -9.22928 5.1766 
-7.31368 -9.61905 5.36914 -7.07288 -10.0281 5.53051 -6.8438 -10.4532 5.66511 
-6.62848 -10.8919 5.77633 -6.42858 -11.3424 5.8671 -6.24496 -11.803 5.94017 
-6.07798 -12.2719 5.99821 -5.92714 -12.7475 6.04426 -5.79141 -13.2284 6.08161 
-5.66883 -13.7131 6.11475 -5.55686 -14.2002 6.14892 -5.45227 -14.6884 6.19067 
-5.35136 -15.176 6.2473 -5.24987 -15.6604 6.3264 -5.14319 -16.1379 6.43547 
-5.02671 -16.6041 6.57874 -4.89588 -17.0536 6.75806 -4.74672 -17.4825 6.9711 
-4.57566 -17.8873 7.21266 -4.37954 -18.2657 7.47686 -4.15545 -18.6158 7.75736 
-3.90079 -18.9354 8.04811 -3.61326 -19.2215 8.34327 -3.29155 -19.4701 8.63721 
-2.93526 -19.676 8.92453 -2.54672 -19.8338 9.2004 -2.1307 -19.9387 9.46061 
-1.69393 -19.9891 9.70281 -1.24484 -19.9873 9.92637 -0.790189 -19.9385 10.1324 
-0.334978 -19.851 10.3236 0.117834 -19.7327 10.5029 0.567368 -19.5908 10.673 
1.01342 -19.4313 10.8363 1.45643 -19.2588 10.9945 1.89692 -19.077 11.1492 
2.33541 -18.8888 11.3019 2.77238 -18.6972 11.4547 3.20822 -18.505 11.6099 
3.64321 -18.3154 11.7707 4.07755 -18.1324 11.9408 4.51101 -17.9604 12.1242 
4.94285 -17.805 12.3256 5.37148 -17.6723 12.5492 5.794 -17.5692 12.7989 
6.20578 -17.5043 13.0781 6.59934 -17.4879 13.3899 6.96359 -17.5307 13.7344 
7.28142 -17.6433 14.1067 7.53806 -17.8294 14.4979 7.72425 -18.0795 14.8927 
7.83729 -18.3809 15.2784 7.88623 -18.7174 15.6487 7.88115 -19.0752 16.0003 
7.83135 -19.4469 16.3335 7.74493 -19.827 16.6487 7.62738 -20.2135 16.9456 
7.48324 -20.6049 17.2236 7.31546 -21.0011 17.4808 7.12679 -21.4014 17.7161 
6.92006 -21.8047 17.93 6.6973 -22.2101 18.1227 6.45828 -22.6165 18.2932 
6.20595 -23.0225 18.4458 5.95395 -23.425 18.6021 5.70799 -23.8233 18.7725 
5.44188 -24.2251 18.9231 5.16162 -24.6293 19.0638 5.00549 -24.9993 19.3861 
5.06198 -25.2828 19.9622 5.13784 -25.3972 20.2936 
LINES 1 129
128 0 1 2 3 4 5 6 7 8 9 10 11 12 13 14 15 16 17 18 19 20 21 22 23 24 25 26 27 28 29 30 31 32 33 34 35 36 37 38 39 40 41 42 43 44 45 46 47 48 49 50 51 52 53 54 55 56 57 58 59 60 61 62 63 64 65 66 67 68 69 70 71 72 73 74 75 76 77 78 79 80 81 82 83 84 85 86 87 88 89 90 91 92 93 94 95 96 97 98 99 100 101 102 103 104 105 106 107 108 109 110 111 112 113 114 115 116 117 118 119 120 121 122 123 124 125 126 127 

CELL_DATA 1
FIELD FieldData 2
Length 1 1 double
55.874815351 
Tortuosity 1 1 double
0.69766769292 
POINT_DATA 128
SCALARS MaximumInscribedSphereRadius float
LOOKUP_TABLE default
0.93 0.93 0.93 0.93 0.93 0.93 0.93 0.865973 0.796899 
0.756848 0.719893 0.825103 0.949863 1.05735 1.16188 1.11163 1.02942 0.980155 
0.938895 1.01759 1.12926 1.33996 1.58103 1.53937 1.39998 1.23523 1.06061 
0.980751 0.942536 0.936903 0.947176 1.01404 1.11069 1.03629 0.845187 0.800005 
0.760372 0.840155 0.915147 0.922718 0.93 0.93 0.930046 0.933756 0.937466 
1.01258 1.08859 1.16207 1.23544 1.24 1.24 1.24 1.24 1.24 
1.24 1.24632 1.25357 1.30116 1.35598 1.43404 1.51709 1.47833 1.40895 
1.35958 1.31606 1.35469 1.42079 1.42693 1.41024 1.29799 1.14461 1.12743 
1.17608 1.285 1.42638 1.44226 1.38312 1.30483 1.21386 1.12262 1.03116 
1.08368 1.25226 1.45839 1.69777 1.79503 1.75426 1.73126 1.72726 1.74794 
1.79778 1.77938 1.67177 1.54971 1.40671 1.30745 1.27861 1.26312 1.27157 
1.2772 1.2772 1.27897 1.28471 1.29215 1.30383 1.3065 1.28402 1.26375 
1.2504 1.24244 1.25345 1.2935 1.45139 1.60648 1.74823 1.8688 1.86811 
1.86154 1.81351 1.76112 1.66919 1.57218 1.41134 1.25787 1.24118 1.23595 
1.54798 1.86 
TEXTURE_COORDINATES TCoords 2 float
0 0 0.00787402 0 0.015748 0 0.023622 0 0.0314961 
0 0.0393701 0 0.0472441 0 0.0551181 0 0.0629921 0 
0.0708661 0 0.0787402 0 0.0866142 0 0.0944882 0 0.102362 
0 0.110236 0 0.11811 0 0.125984 0 0.133858 0 
0.141732 0 0.149606 0 0.15748 0 0.165354 0 0.173228 
0 0.181102 0 0.188976 0 0.19685 0 0.204724 0 
0.212598 0 0.220472 0 0.228346 0 0.23622 0 0.244094 
0 0.251969 0 0.259843 0 0.267717 0 0.275591 0 
0.283465 0 0.291339 0 0.299213 0 0.307087 0 0.314961 
0 0.322835 0 0.330709 0 0.338583 0 0.346457 0 
0.354331 0 0.362205 0 0.370079 0 0.377953 0 0.385827 
0 0.393701 0 0.401575 0 0.409449 0 0.417323 0 
0.425197 0 0.433071 0 0.440945 0 0.448819 0 0.456693 
0 0.464567 0 0.472441 0 0.480315 0 0.488189 0 
0.496063 0 0.503937 0 0.511811 0 0.519685 0 0.527559 
0 0.535433 0 0.543307 0 0.551181 0 0.559055 0 
0.566929 0 0.574803 0 0.582677 0 0.590551 0 0.598425 
0 0.606299 0 0.614173 0 0.622047 0 0.629921 0 
0.637795 0 0.645669 0 0.653543 0 0.661417 0 0.669291 
0 0.677165 0 0.685039 0 0.692913 0 0.700787 0 
0.708661 0 0.716535 0 0.724409 0 0.732283 0 0.740157 
0 0.748031 0 0.755906 0 0.76378 0 0.771654 0 
0.779528 0 0.787402 0 0.795276 0 0.80315 0 0.811024 
0 0.818898 0 0.826772 0 0.834646 0 0.84252 0 
0.850394 0 0.858268 0 0.866142 0 0.874016 0 0.88189 
0 0.889764 0 0.897638 0 0.905512 0 0.913386 0 
0.92126 0 0.929134 0 0.937008 0 0.944882 0 0.952756 
0 0.96063 0 0.968504 0 0.976378 0 0.984252 0 
0.992126 0 1 0 
FIELD FieldData 7
Curvature 1 128 double
0 0.043253761925 0.078816281012 0.10842747431 0.12979449133 0.1414653331 0.14332212164 0.13671314376 0.12417701294 
0.10912242096 0.095844024475 0.089640902244 0.095042985844 0.11243514618 0.13857405204 0.169625818 0.20195542682 0.23168186979 
0.254663072 0.26726395843 0.26747821804 0.25565257146 0.23417730554 0.20637365356 0.1752940138 0.14294048227 0.11000217662 
0.075894651599 0.045867665748 0.08031154372 0.23462888039 0.68134520565 2.3032424298 7.2160072186 6.0670744147 1.8029448682 
0.58891652952 0.25065646443 0.13950311344 0.10235899809 0.092294429987 0.092613035783 0.097853941968 0.10650946762 0.11828259001 
0.13316829333 0.15101845622 0.17124487904 0.19268666696 0.21338295666 0.23085484329 0.24251385833 0.24648507381 0.24222724071 
0.2306630679 0.21378136998 0.19384873497 0.17281754704 0.15196347109 0.13194566167 0.11290936132 0.094707620794 0.077120902236 
0.060039073163 0.043784508981 0.030052644758 0.024511233319 0.032325140374 0.047381220296 0.064569368944 0.082113889817 0.099261422995 
0.11567525222 0.13119315817 0.14585630367 0.15972195994 0.17281621319 0.18490423496 0.19556500902 0.2040063491 0.20929983708 
0.21054886552 0.20710876673 0.19892683865 0.18627242481 0.17008295486 0.15138059 0.13115891943 0.11037048749 0.08957878976 
0.069143782464 0.049444224337 0.031260658367 0.019148053525 0.025519909749 0.043952623022 0.066290572849 0.091213857509 0.11867257889 
0.14884029825 0.18155015205 0.2161022364 0.25083127306 0.2829630289 0.30875711457 0.32453915724 0.32782682189 0.31866315805 
0.29938120699 0.27360179619 0.24491776565 0.21582951918 0.18768989486 0.16083236886 0.13490602585 0.10936929229 0.083642336348 
0.057622261005 0.032309227399 0.016671522167 0.031029779641 0.051699411726 0.067292861194 0.073715134336 0.068660871844 0.052092033943 
0.026590532845 0 
Torsion 1 128 double
0 0 0.017224164124 0.019204944037 0.016113594383 0.0045819028611 -0.020531292577 -0.0674476593 -0.14909775742 
-0.28171176187 -0.46326354876 -0.60640950182 -0.56527615497 -0.38413160558 -0.20864791116 -0.084998495692 -0.003684949647 0.050002118647 
0.085779808928 0.10905852662 0.12275995773 0.12875938583 0.12907586851 0.12711083921 0.13002167329 0.15608754317 0.26573581896 
0.75949306387 3.5411391153 2.2430245158 0.51247883048 -0.010427401975 -0.23008227908 -0.17332377085 -0.25579888683 -0.70358375371 
-1.040453634 -1.2048547759 -1.2008608147 -0.91387710562 -0.56862230772 -0.34171356138 -0.22247476399 -0.1660644881 -0.14212386985 
-0.13328189266 -0.13005402481 -0.12789718686 -0.12541790377 -0.12284044515 -0.12050957844 -0.11928960694 -0.11971120136 -0.12192780583 
-0.12608250577 -0.13178069954 -0.13874039734 -0.1467226352 -0.15566822009 -0.16673041673 -0.1821349977 -0.20702843461 -0.25361743649 
-0.35037582908 -0.57695823379 -1.1355837184 -1.6850766798 -1.0192220761 -0.53043134083 -0.33642021406 -0.25418079035 -0.21641966269 
-0.19789754149 -0.18729112992 -0.17865866725 -0.16839067389 -0.15480359974 -0.13764705124 -0.11760946753 -0.096233729619 -0.074888667138 
-0.054965059814 -0.03691679964 -0.021114854766 -0.007324474654 0.0053362232263 0.017737208841 0.031891831439 0.051571716681 0.084298188869 
0.14846835599 0.30315092642 0.78698793567 2.1694280368 1.2559232078 0.4331817008 0.19410875472 0.10395705356 0.061948253517 
0.039433353966 0.025874436424 0.017031168947 0.011143111177 0.0070020582258 0.00435683158 0.0028700487651 0.0025058946393 0.0032865159239 
0.0048711726345 0.0072374745405 0.0096181556655 0.010754363552 0.0095065728501 0.0036942039511 -0.0098406012542 -0.03759351059 -0.097013710916 
-0.25279964217 -0.88863973325 -3.3533962908 -0.89113030355 -0.26782900381 -0.11648822929 -0.060632995422 -0.034327766908 -0.019772108366 
0 0 
Abscissas 1 128 double
0 0.50099509408 1.0019901882 1.5029831371 2.0039758844 2.5049740897 3.0059725072 3.5069657904 4.007958669 
4.5089562503 5.0099543335 5.5109473033 6.01193957 6.5129340136 7.0139288293 7.5149262613 8.0159242336 8.5169177921 
9.0179102782 9.5189058863 10.019902352 10.520896987 11.021891061 11.522887191 12.023884032 12.524879626 13.025874733 
13.526868537 14.027861769 14.52885848 15.02985689 15.530852802 16.031847399 16.532843935 17.033841323 17.534835838 
18.03583038 18.53682549 19.037820451 19.538813305 20.039806352 20.540804272 21.041802155 21.542797007 22.04379186 
22.544788544 23.045785252 23.546781071 24.047776855 24.548768556 25.049759986 25.55075503 26.051750411 26.552744063 
27.053737511 27.554733794 28.055730494 28.556737572 29.057746506 29.558743434 30.059737795 30.560705158 31.061665734 
31.562681799 32.063714053 32.564716626 33.065709271 33.56669239 34.067671882 34.568655551 35.069641019 35.570650982 
36.071672785 36.572675898 37.073668946 37.574656237 38.075640086 38.576622901 39.077605031 39.578597813 40.079598393 
40.580600265 41.081603179 41.58260208 42.083597432 42.584592335 43.085586803 43.586586173 44.087590786 44.588586666 
45.089572232 45.590560872 46.09155353 46.592549785 47.093551253 47.594552875 48.095554742 48.596550623 49.097535765 
49.598522726 50.09951333 50.600508479 51.101513815 51.602516312 52.10351168 52.604505913 53.105496972 53.606491894 
54.107498799 54.608495164 55.109454539 55.610424675 56.111438474 56.612448996 57.11344389 57.614439586 58.11543988 
58.616440291 59.117441521 59.618440455 60.119418507 60.620398989 61.121409994 61.622418807 62.12338694 62.624356134 
63.125354653 63.626353172 
ParallelTransportNormals 3 128 double
-0.0033316095341 0 0.99999445017 -0.028678635182 0.0024111347614 0.99923325389 -0.054025660831 0.0048222695228 0.99847205761 
-0.035932037759 0.0098170449993 0.99905935862 -0.01375424135 0.015054727449 0.99977344173 0.026310065392 0.034246877856 0.99800453863 
0.067069920456 0.053981672222 0.99613908025 0.10691313739 0.08105086084 0.98973200309 0.14668411157 0.1086980932 0.98296698849 
0.17274866264 0.13027890219 0.97574325621 0.19735062985 0.15121237578 0.96847057512 0.20117560503 0.15454368124 0.9672862686 
0.20214354088 0.15545451668 0.96693917306 0.16945324927 0.12443466928 0.97615303182 0.13100819897 0.087955432352 0.98700158703 
0.038837866156 0.0035595215694 0.98949614673 -0.064425810327 -0.090730355434 0.99026575053 -0.18873818588 -0.21057576852 0.94038995016 
-0.3181651094 -0.33663082976 0.87820800449 -0.39724623191 -0.43577121956 0.79524108686 -0.462491964 -0.52751526289 0.70656230853 
-0.48773702418 -0.58503633473 0.64396168214 -0.5007201353 -0.63206657445 0.58935514573 -0.50261473656 -0.66265043766 0.55398043456 
-0.50067636759 -0.68754927446 0.5252535971 -0.49641092345 -0.70630670825 0.5041021919 -0.49123937196 -0.72267282679 0.48590047861 
-0.48508371288 -0.73740452521 0.46955802642 -0.47849562576 -0.75141804092 0.45403255463 -0.4687653705 -0.7681388207 0.43524433833 
-0.45750119544 -0.78618121211 0.41486334019 -0.45086697011 -0.77884227948 0.43375512512 -0.44666843673 -0.7581509154 0.4733072642 
-0.17886776717 -0.79556278928 0.47860382498 0.21236449851 -0.86934696224 0.44452465812 0.23321675671 -0.8851152319 0.39843138654 
0.25413136453 -0.90077049892 0.35162572316 0.2763874513 -0.91399446526 0.28949264317 0.29787168704 -0.92668072387 0.22864796174 
0.30849048841 -0.93179760993 0.18594021265 0.31885933536 -0.93677875759 0.14398946907 0.32293954961 -0.93834484697 0.12108431655 
0.32698428886 -0.93989859899 0.098331658742 0.32818260209 -0.94046243231 0.087814800476 0.32938091531 -0.94102626564 0.077297942211 
0.3300885545 -0.94214317066 0.052696797789 0.33079002289 -0.9432670312 0.027918527068 0.32290206575 -0.94182936872 -0.048422157024 
0.314679968 -0.94029205942 -0.12676869083 0.27588241765 -0.91346315266 -0.26034572906 0.2350591464 -0.88495859718 -0.39758196375 
0.16801178654 -0.81825368091 -0.52541064959 0.098518108786 -0.74798523846 -0.65236175088 0.036153422383 -0.6707777959 -0.73042386582 
-0.025369016318 -0.59275055198 -0.80271003934 -0.070753169332 -0.52583758084 -0.84324231099 -0.11376931887 -0.46055542954 -0.87911526805 
-0.14534623842 -0.40540023671 -0.90026331622 -0.17487710512 -0.35205638016 -0.91877762577 -0.19691942301 -0.30582696802 -0.93016421029 
-0.21736057234 -0.26111873509 -0.94002677599 -0.23193637009 -0.22373682878 -0.9458957039 -0.24503774534 -0.18819660249 -0.95076071766 
-0.25297998206 -0.16318102873 -0.95334313779 -0.25941710222 -0.14123589564 -0.95525963872 -0.26099378483 -0.13588927748 -0.95572815473 
-0.26094476017 -0.13609449006 -0.95571235229 -0.25610990559 -0.15870199806 -0.9530232062 -0.24945295928 -0.18983865108 -0.94931624765 
-0.23756008512 -0.24265709637 -0.93847620951 -0.22341332021 -0.30480882365 -0.92456562065 -0.20422107251 -0.37509591728 -0.90078605266 
-0.18259022131 -0.44931502966 -0.87223656909 -0.15794805156 -0.51605263335 -0.83871548288 -0.13168396864 -0.57876065423 -0.80251666341 
-0.10386444427 -0.63061956334 -0.76674790683 -0.075114956801 -0.67599203512 -0.73123627508 -0.044215071994 -0.71354686353 -0.69726270303 
-0.011890808072 -0.74592344524 -0.6643079102 0.025242819042 -0.77323020609 -0.63145507401 0.06589685385 -0.79682590672 -0.5986768691 
0.11281289161 -0.81474546711 -0.56590431316 0.16477737466 -0.82808890643 -0.53313631143 0.21780497151 -0.83447666396 -0.50330505375 
0.27177346706 -0.83470836196 -0.47607293325 0.3195816156 -0.83093476328 -0.45363015899 0.36140616048 -0.82327078182 -0.4358393223 
0.39571593235 -0.81538366934 -0.42180600684 0.42198881858 -0.80725792309 -0.41179127827 0.44297657124 -0.80025107225 -0.40394371794 
0.45772147667 -0.79456587072 -0.39865603621 0.46926080391 -0.78998871875 -0.39454218873 0.47660869132 -0.78686039216 -0.39196318311 
0.48169383956 -0.78468803971 -0.39017032887 0.48349861559 -0.78390159642 -0.38951718583 0.48300007859 -0.78408022687 -0.38976184513 
0.47879182962 -0.78581320342 -0.39145250334 0.47188834002 -0.78837136082 -0.39456422249 0.46015034843 -0.79240966006 -0.40022492439 
0.44529075477 -0.7966321276 -0.40833215174 0.4241776415 -0.8012235403 -0.42134051462 0.39985470632 -0.80434178221 -0.43847120928 
0.36833500721 -0.80415701769 -0.46484461256 0.33628788227 -0.79984068279 -0.49562263467 0.30291726288 -0.78515680413 -0.5374533739 
0.27380955125 -0.76742499917 -0.57870889646 0.25661546584 -0.74117509893 -0.61835685049 0.24299974413 -0.71606545124 -0.65403383484 
0.24048230801 -0.69449229382 -0.67739486713 0.239043779 -0.67430396045 -0.69857221959 0.24139163271 -0.6589756134 -0.71208603234 
0.24431160682 -0.64344166457 -0.72535076253 0.24955278618 -0.62707354882 -0.73760491568 0.25546537978 -0.60992857246 -0.75000234558 
0.2645804276 -0.58907819284 -0.76308316473 0.27401547809 -0.56814086811 -0.77584443765 0.2852830351 -0.5467056492 -0.78677581794 
0.29610826956 -0.52632038109 -0.79702336227 0.30380815747 -0.51335381729 -0.80243908328 0.31029852127 -0.50238055133 -0.80703995552 
0.30579517106 -0.50952494513 -0.80423443198 0.29999305786 -0.51883268 -0.80031834117 0.27788288145 -0.55530464991 -0.78245728778 
0.25485326544 -0.5975321258 -0.75673977391 0.21475608484 -0.74659910468 -0.58518272224 0.17605721596 -0.89046766062 -0.41960839136 
0.17605721596 -0.89046766062 -0.41960839136 0.17605721596 -0.89046766062 -0.41960839136 
FrenetTangent 3 128 double
-0.99297298308 -0.11782063751 0.011088383672 -0.99297298308 -0.11782063751 0.011088383672 -0.98921663913 -0.14537783955 0.017768641948 
-0.98190952944 -0.18722638026 0.028283538257 -0.96993614323 -0.2397017397 0.042035152546 -0.95268678466 -0.29837024451 0.05799213332 
-0.93046015499 -0.35870604789 0.07465836315 -0.90449994329 -0.41683627689 0.090151932103 -0.87666514952 -0.47008602586 0.10235889752 
-0.84891087803 -0.51715402385 0.10909645628 -0.8227946197 -0.55793650796 0.10823985806 -0.79912801033 -0.59315062635 0.09780980301 
-0.77779022357 -0.62390622441 0.076048611253 -0.7576651169 -0.65132077035 0.041531009461 -0.73667406845 -0.67621533946 -0.0066431578062 
-0.71193093241 -0.69889631823 -0.068544028518 -0.68008290882 -0.71905089044 -0.14301417446 -0.63791409911 -0.73579946419 -0.2272988136 
-0.58319453769 -0.74795206538 -0.31694138117 -0.51554728773 -0.75445385065 -0.40621469861 -0.43693237812 -0.75486432375 -0.48915227657 
-0.35140800033 -0.74963631391 -0.56085453923 -0.26420584795 -0.74005208427 -0.61848054333 -0.18056988306 -0.72789120796 -0.66148991429 
-0.10486836645 -0.71505040858 -0.69116245479 -0.040220551477 -0.70330747965 -0.70974706502 0.011422732163 -0.69429844019 -0.71959655164 
0.048855455714 -0.68970010454 -0.7224450915 0.070965903987 -0.69162997675 -0.71875713265 0.075738746484 -0.70338178186 -0.70676566925 
0.058268710625 -0.7308269761 -0.68007109067 0.0057393196804 -0.78481988104 -0.61969735721 -0.11659546605 -0.87869936558 -0.46291783529 
-0.36561714441 -0.93064654265 -0.01486998235 -0.52669066625 -0.57396256471 0.6270278434 -0.46725443338 -0.20504284958 0.86001786279 
-0.39785446486 -0.035287685332 0.91676965703 -0.34543155219 0.041342803525 0.93753283428 -0.30285330403 0.076033925299 0.9499993255 
-0.26484065426 0.08899489972 0.96017672107 -0.22836875378 0.089105837911 0.96948845375 -0.19158537289 0.080595976251 0.97816120016 
-0.15323656436 0.06545261262 0.98601952863 -0.11239854676 0.044388051491 0.99267127871 -0.068384560178 0.017303339597 0.99750897057 
-0.020753182245 -0.016411099173 0.99964992935 0.03061767812 -0.057601904836 0.99787002077 0.085404505514 -0.10703913663 0.99057997843 
0.14270782879 -0.1650727944 0.97590237634 0.20094553635 -0.23128717604 0.95190710346 0.25785954707 -0.30425022179 0.91702794752 
0.31074100476 -0.38147935802 0.87058229213 0.35685289657 -0.45973762509 0.81320189762 0.39396093529 -0.53561917142 0.74693164658 
0.42075842307 -0.60619748283 0.67489774131 0.43700789703 -0.66949181474 0.60067029886 0.44340306321 -0.72458496806 0.5276081383 
0.44125421781 -0.77145074239 0.45843043892 0.43216880015 -0.810640717 0.39508449238 0.41782462877 -0.84298230399 0.33882652605 
0.39983572612 -0.86936630125 0.29040252471 0.37971423689 -0.89061752723 0.25023492662 0.35886583663 -0.9074397425 0.21855988887 
0.33858784157 -0.92039775907 0.1955153156 0.32007906891 -0.9299071855 0.18116847409 0.30443816251 -0.93622403667 0.17550486711 
0.2926553005 -0.93942972366 0.17839470116 0.28560506737 -0.93941714707 0.18953936075 0.28403444723 -0.93588891758 0.20841393126 
0.28855254322 -0.92837520391 0.23421552161 0.29961281904 -0.91627699824 0.26583570332 0.31748962654 -0.89893172704 0.30186435226 
0.34226134356 -0.87568445998 0.3406374895 0.37378483866 -0.84595531873 0.38032156538 0.41166872677 -0.80928439021 0.419031783 
0.45525363348 -0.76535017774 0.45495410168 0.50358354411 -0.71398047841 0.48645194065 0.55538031463 -0.65518022974 0.51214409367 
0.60904158224 -0.58918758113 0.5309673675 0.66267590838 -0.51656706896 0.54223528446 0.71420472248 -0.43832949336 0.54569118522 
0.76155804856 -0.35599296513 0.54157026087 0.80293190113 -0.27156290771 0.53061657467 0.83704806603 -0.18735790766 0.51405014307 
0.86332225969 -0.10577915914 0.49344244388 0.88190110269 -0.029027383032 0.47053996228 0.89355227871 0.041139852677 0.44707028277 
0.89945289725 0.10347778821 0.42459019415 0.90096228528 0.15726891097 0.40439269299 0.89941575351 0.20222929332 0.38749789066 
0.89598981449 0.23834418272 0.37469227759 0.89162490383 0.26575470348 0.36657805232 0.8869887427 0.2846396281 0.36363615392 
0.88247339456 0.2951039728 0.36627087399 0.8781842304 0.2971307328 0.37484101311 0.87393311718 0.29054232235 0.3896486438 
0.86921656343 0.2749737264 0.41091606885 0.86317595965 0.24988107472 0.43873307508 0.8545503326 0.21459343207 0.47296235365 
0.84163436092 0.16839270586 0.51312327869 0.82227564239 0.11067753774 0.55822329813 0.79395858944 0.041244323722 0.60657123573 
0.75405508749 -0.039345923054 0.65563162169 0.70031280906 -0.12936761134 0.70201566264 0.63154464035 -0.22564991206 0.74177724718 
0.54832640873 -0.3236983444 0.77107556784 0.45333282273 -0.41833957574 0.78707137618 0.35098777321 -0.50478320781 0.78867071466 
0.24648087203 -0.57963104201 0.7767078182 0.14463773289 -0.64132970585 0.75350921336 0.049136764039 -0.69001949515 0.72212095575 
-0.037704215106 -0.72696176032 0.68564202846 -0.11472367569 -0.75392774447 0.64686276316 -0.18154583741 -0.77276812711 0.60816982056 
-0.23821941007 -0.78516084654 0.57164145908 -0.28497252738 -0.79252702809 0.53915820348 -0.32207305819 -0.79601593809 0.51247202021 
-0.34976896094 -0.79652342002 0.49316540362 -0.36830007164 -0.79468928543 0.48251839017 -0.37795174233 -0.79087650106 0.48131781656 
-0.37916517291 -0.78520768692 0.48957395769 -0.37272458279 -0.77766924839 0.50626764215 -0.36001011375 -0.76832645934 0.52921372798 
-0.34320363543 -0.75762642124 0.55516976725 -0.32525984143 -0.74663773027 0.58029142272 -0.3095319797 -0.73700728405 0.60084125757 
-0.29908716845 -0.73054520201 0.61388156308 -0.29908716845 -0.73054520201 0.61388156308 
FrenetNormal 3 128 double
0.11720839703 -0.96620691516 0.22957872019 0.11720839703 -0.96620691516 0.22957872019 0.1454487288 -0.9609017032 0.23561108648 
0.18842830664 -0.95143877515 0.24343177772 0.24247885817 -0.93721834508 0.25065070712 0.30312297997 -0.91853339976 0.2537968726 
0.36573853478 -0.89713684778 0.24775148945 0.4262235345 -0.87630136998 0.2245649296 0.48104290392 -0.85979761266 0.17130612907 
0.52536924272 -0.8482144807 0.067226137311 0.54737570276 -0.82918979571 -0.11324364319 0.52456674846 -0.76749158847 -0.36849204609 
0.4531952905 -0.64053909081 -0.61993846614 0.38007484556 -0.49207197692 -0.7832038568 0.34684857856 -0.36938997729 -0.86211780415 
0.35840673655 -0.27767578702 -0.89131406838 0.40484674197 -0.20570368282 -0.89094618827 0.47485293791 -0.14345351161 -0.86829475258 
0.55809554773 -0.085412798258 -0.82536901656 0.64519748521 -0.029838982919 -0.76343293103 0.72803576347 0.022584999063 -0.68516701973 
0.8004966504 0.070079661576 -0.59522596862 0.85915747116 0.11078076352 -0.49957588231 0.9034336591 0.14314272415 -0.40412595081 
0.93521589394 0.16543675565 -0.31305257004 0.95842733868 0.17366437408 -0.22640168205 0.97878179803 0.1550026081 -0.1340163547 
0.99819254821 0.059058994452 0.011120785897 0.82535780002 -0.36392161623 0.43167761024 -0.20772365742 -0.70438062433 0.67874797843 
-0.5101478755 -0.60736270874 0.60898249988 -0.56301732178 -0.51468646223 0.64661374944 -0.5444087754 -0.33329023346 0.76976405836 
-0.39416067609 0.14033903834 0.90826335153 -0.0018468699011 0.73840123426 0.67435910783 0.2772820687 0.88967293023 0.36276263809 
0.46372967677 0.85447922413 0.23413680277 0.66027807488 0.720625148 0.21150002339 0.85370429311 0.46473982974 0.23495929559 
0.95766648083 0.14080009974 0.25109807528 0.96289484501 -0.12642105389 0.23843496931 0.93083615167 -0.30107157532 0.20712306797 
0.89574217245 -0.41219052444 0.16656810034 0.86381703978 -0.48938127387 0.11969164785 0.83276005381 -0.54961071342 0.066623993162 
0.79927184869 -0.60093198294 0.0067278351883 0.76112097109 -0.64576993784 -0.060630477066 0.71698656257 -0.68375119177 -0.13570032002 
0.66619985662 -0.71318325226 -0.21805366254 0.60811892184 -0.73236668751 -0.30631750182 0.54232644094 -0.73992404655 -0.39798798574 
0.46887853971 -0.73520451608 -0.48951734856 0.38820471967 -0.71880739283 -0.5767261288 0.30151939999 -0.69236776453 -0.65552492711 
0.21035746446 -0.65848323163 -0.72259917714 0.11631291713 -0.62014357178 -0.775817798 0.020926208583 -0.58010761465 -0.81427099249 
-0.07483350959 -0.54070659156 -0.83787608134 -0.17015881461 -0.5035434085 -0.84704782248 -0.26480948046 -0.46974475627 -0.84214951346 
-0.35935932005 -0.4401491034 -0.82287887679 -0.45523613181 -0.4153653204 -0.78754791277 -0.55624881511 -0.39595287014 -0.73062205025 
-0.66972391073 -0.38168913263 -0.6370112161 -0.80557988164 -0.36778409184 -0.46451686307 -0.94199171787 -0.32324913742 -0.09034156639 
-0.79642942875 -0.1362221049 0.58918902158 -0.28185053806 0.10669306119 0.95350766378 0.057270401301 0.23353813051 0.97065959158 
0.24362706156 0.30776084833 0.91974404869 0.36123728176 0.36684096105 0.85728369608 0.44501918435 0.42234841974 0.78967065154 
0.50898062404 0.47752472123 0.71617655991 0.55856157148 0.53265647705 0.63583492223 0.59528916021 0.5869451006 0.54874972857 
0.61906799116 0.63934324886 0.45606472397 0.6289656675 0.68898890597 0.3601339703 0.62441190368 0.73529670711 0.26353088444 
0.60517430102 0.77793232439 0.16907206762 0.57188654948 0.81652395538 0.078958247328 0.52584297659 0.85056693918 -0.0050045918233 
0.46905082878 0.87940080248 -0.081520234434 0.40414983379 0.90235135002 -0.14974963428 0.33396321577 0.91917061226 -0.20879165708 
0.26166033025 0.92991164723 -0.25845347728 0.18987498014 0.93543910513 -0.29816299654 0.12090227604 0.93695629988 -0.32786511214 
0.056066874918 0.93621068459 -0.34693812071 -0.0042137446472 0.93512810772 -0.3542847252 -0.06144398941 0.93622581401 -0.34598534845 
-0.11939207255 0.9419847501 -0.31370410197 -0.18908197483 0.95419716798 -0.23185290902 -0.29968613125 0.95390897793 -0.015680706906 
-0.46501954792 0.66440712426 0.58508118521 -0.33498438692 -0.17734215333 0.9253838237 -0.20272287613 -0.51072257167 0.83550337539 
-0.1613288631 -0.62787006349 0.76141459226 -0.16160435045 -0.6865013213 0.70894285367 -0.18600149526 -0.72379688601 0.6644708508 
-0.22773298369 -0.75086915029 0.61994613256 -0.28349993253 -0.77086154987 0.57043865507 -0.35092884982 -0.78362334653 0.51262402709 
-0.42726192476 -0.78751846862 0.44414176704 -0.50880927369 -0.78023569172 0.36379305707 -0.59094023546 -0.75944157313 0.27209949489 
-0.66817785529 -0.7240358619 0.17120287494 -0.73547681872 -0.67440963791 0.065157420326 -0.7888975472 -0.61313249804 -0.041342470551 
-0.8267067194 -0.543994535 -0.14361735963 -0.84917293769 -0.47135473069 -0.23818068719 -0.85807644183 -0.39918063294 -0.32304743037 
-0.85622976921 -0.33025535111 -0.39724298029 -0.84682450602 -0.26620862777 -0.46045762293 -0.8331863637 -0.2076259311 -0.51253483402 
-0.81924950032 -0.15366382865 -0.55246509754 -0.80944233451 -0.10230839781 -0.57821803746 -0.81074840104 -0.047593387957 -0.58345685328 
-0.83468278667 0.025919664191 -0.55012072916 -0.90341042768 0.18334395838 -0.38760107339 -0.661314223 0.59445289337 0.45748142696 
0.19623616076 0.44881271516 0.87181334924 0.4123790354 0.34993115946 0.84112526701 0.4915658976 0.32590532055 0.80755723658 
0.53425086503 0.32867842453 0.77881095682 0.56141116753 0.34133654248 0.75386130405 0.57893048308 0.3552007802 0.73394270996 
0.58848302048 0.36520791582 0.72132580214 0.58848302048 0.36520791582 0.72132580214 
FrenetBinormal 3 128 double
-0.016335438189 0.22926511831 0.97322693088 -0.016335438189 0.22926511831 0.97322693088 -0.017178712414 0.23565483349 0.97168497534 
-0.018666795586 0.24435740153 0.96950554978 -0.02068529445 0.25330781596 0.96716455113 -0.022457723555 0.25936767478 0.96551750887 
-0.021891189064 0.25782832962 0.96594271481 -0.014606547567 0.24154384123 0.97027997069 0.0074793183011 0.19941713456 0.97988614963 
0.057770926593 0.11438492187 0.99175531745 0.15293414862 -0.033928391957 0.98765379076 0.29363948903 -0.24316454528 0.92447112145 
0.43549557609 -0.44771720571 0.78095640526 0.53055318528 -0.57762134971 0.62037641311 0.58052336768 -0.63740400011 0.50666434671 
0.60390310372 -0.65912069735 0.44817513056 0.61121710763 -0.6638160979 0.43100096927 0.60628400071 -0.66183097427 0.4409075549 
0.59026561039 -0.65823427576 0.467240995 0.56385388107 -0.65567447895 0.50215513386 0.52825564272 -0.65549200647 0.53970010691 
0.48550749737 -0.65812934739 0.57545480457 0.43822791977 -0.66336304917 0.60655235168 0.38884719483 -0.67058522941 0.63175415248 