# vtk DataFile Version 4.2
vtk output
ASCII
DATASET POLYDATA
POINTS 128 float
0 0 0 -0.186707 0.236686 0.147137 -0.569356 0.678015 0.450812 
-0.92588 0.989807 0.736804 -1.2586 1.18816 0.995523 -1.62757 1.37594 1.26004 
-2.03323 1.54765 1.52097 -2.46193 1.67267 1.75925 -2.9124 1.74452 1.96625 
-3.38483 1.76281 2.1374 -3.86838 1.72164 2.27291 -4.34909 1.61502 2.37657 
-4.81512 1.44564 2.46309 -5.25615 1.21969 2.55003 -5.66659 0.946983 2.65056 
-6.04329 0.638277 2.7746 -6.38773 0.302763 2.92165 -6.70328 -0.0517428 3.08671 
-6.99453 -0.422388 3.2603 -7.2663 -0.808815 3.43049 -7.52204 -1.21452 3.5805 
-7.76387 -1.64342 3.69076 -7.98859 -2.09115 3.73596 -8.19105 -2.54908 3.69205 
-8.36921 -3.00351 3.56307 -8.52298 -3.44026 3.36635 -8.65672 -3.85951 3.12338 
-8.77626 -4.26816 2.85644 -8.88236 -4.67254 2.57837 -8.97263 -5.07831 2.29668 
-9.0395 -5.48772 2.01343 -9.07249 -5.90046 1.72743 -9.05965 -6.30864 1.43432 
-8.98934 -6.70042 1.12827 -8.86155 -7.06619 0.806815 -8.68374 -7.39882 0.470554 
-8.47042 -7.70364 0.132407 -8.23882 -7.99372 -0.19007 -7.9877 -8.28358 -0.512853 
-7.70819 -8.58992 -0.861256 -7.44352 -8.94526 -1.11031 -7.26941 -9.3824 -1.05089 
-7.2282 -9.78961 -0.702398 -7.33106 -9.97136 -0.244768 -7.53282 -9.94705 0.229831 
-7.76266 -9.8454 0.681573 -7.99991 -9.70009 1.09519 -8.25274 -9.48964 1.46957 
-8.51663 -9.21555 1.80195 -8.77906 -8.89363 2.08933 -9.02874 -8.53603 2.33873 
-9.25539 -8.15176 2.56371 -9.45098 -7.74229 2.77888 -9.60645 -7.30709 3.0013 
-9.67843 -6.88733 3.27285 -9.60481 -6.55422 3.64695 -9.40308 -6.38286 4.09182 
-9.1482 -6.44207 4.51706 -8.8966 -6.69737 4.88527 -8.68908 -7.05011 5.19526 
-8.53499 -7.4531 5.45079 -8.42257 -7.895 5.65832 -8.34197 -8.36436 5.82188 
-8.28499 -8.8495 5.94364 -8.24211 -9.34339 6.02509 -8.20294 -9.8425 6.06726 
-8.15826 -10.3431 6.07155 -8.09999 -10.8411 6.03984 -8.02294 -11.3337 5.97693 
-7.92435 -11.8185 5.89011 -7.8038 -12.2955 5.78865 -7.66275 -12.766 5.68349 
-7.50231 -13.2318 5.58585 -7.32312 -13.6946 5.50716 -7.12481 -14.1539 5.4589 
-6.90597 -14.6066 5.45246 -6.66538 -15.0464 5.49634 -6.4021 -15.4632 5.59588 
-6.11667 -15.848 5.75045 -5.81123 -16.1925 5.9531 -5.48868 -16.4931 6.19524 
-5.15267 -16.7505 6.46678 -4.80662 -16.9673 6.7598 -4.45369 -17.1474 7.06899 
-4.09724 -17.294 7.3913 -3.74087 -17.4094 7.72625 -3.3877 -17.494 8.0735 
-3.04016 -17.5459 8.43257 -2.69741 -17.563 8.79962 -2.35418 -17.5429 9.1662 
-2.00375 -17.4868 9.52213 -1.63777 -17.4003 9.85521 -1.25171 -17.2915 10.158 
-0.847111 -17.1712 10.4307 -0.427213 -17.0483 10.6773 0.00275564 -16.929 10.908 
0.437874 -16.8175 11.1325 0.874035 -16.7162 11.3599 1.30775 -16.6271 11.597 
1.73649 -16.5517 11.8474 2.15871 -16.4916 12.1128 2.57455 -16.4484 12.3911 
2.98514 -16.4237 12.6794 3.39323 -16.4195 12.9722 3.80149 -16.4379 13.2643 
4.21193 -16.4813 13.5506 4.62519 -16.5524 13.8273 5.03902 -16.6543 14.0934 
5.4496 -16.7906 14.3491 5.85033 -16.965 14.5974 6.23294 -17.1813 14.8417 
6.58607 -17.4431 15.086 6.89732 -17.7522 15.3333 7.15286 -18.106 15.584 
7.34061 -18.499 15.8373 7.45401 -18.9201 16.0892 7.49059 -19.3571 16.3361 
7.45685 -19.7993 16.5749 7.36169 -20.2374 16.8036 7.21619 -20.6659 17.0215 
7.03405 -21.0832 17.2302 6.83607 -21.4979 17.4371 6.63895 -21.9152 17.6472 
6.44074 -22.3215 17.8524 6.26387 -22.7205 18.0571 6.23327 -23.1937 18.3192 
6.40489 -23.7374 18.6418 6.53102 -24.0101 18.8076 
LINES 1 129
128 0 1 2 3 4 5 6 7 8 9 10 11 12 13 14 15 16 17 18 19 20 21 22 23 24 25 26 27 28 29 30 31 32 33 34 35 36 37 38 39 40 41 42 43 44 45 46 47 48 49 50 51 52 53 54 55 56 57 58 59 60 61 62 63 64 65 66 67 68 69 70 71 72 73 74 75 76 77 78 79 80 81 82 83 84 85 86 87 88 89 90 91 92 93 94 95 96 97 98 99 100 101 102 103 104 105 106 107 108 109 110 111 112 113 114 115 116 117 118 119 120 121 122 123 124 125 126 127 

CELL_DATA 1
FIELD FieldData 2
Length 1 1 double
54.96700338 
Tortuosity 1 1 double
0.76228356166 
POINT_DATA 128
SCALARS MaximumInscribedSphereRadius float
LOOKUP_TABLE default
1.116 1.116 1.116 1.13548 1.15664 1.18964 1.22309 1.23201 1.23943 
1.22072 1.19983 1.17645 1.15283 1.18847 1.23149 1.3183 1.41158 1.52775 
1.64789 1.72024 1.78296 1.77322 1.74673 1.66987 1.58006 1.55638 1.55123 
1.49567 1.42436 1.37327 1.32922 1.37461 1.4545 1.44899 1.40739 1.32355 
1.22034 1.12925 1.04424 1.0624 1.13509 1.29745 1.51591 1.74001 1.9662 
2.08667 2.16109 2.201 2.22487 2.34 2.50084 2.55895 2.56114 2.35424 
2.02405 1.9521 2.04083 2.02349 1.95102 1.9081 1.88145 1.89981 1.94464 
2.06412 2.23103 2.35169 2.44049 2.47429 2.46705 2.42009 2.34103 2.25257 
2.15589 2.05806 1.95915 1.85876 1.75687 1.69456 1.6759 1.75842 1.96042 
2.09453 2.14233 2.17108 2.17365 2.17558 2.17656 2.14656 2.0664 1.99042 
1.92182 1.86762 1.84106 1.79698 1.71628 1.64654 1.602 1.56756 1.55877 
1.55198 1.55086 1.55941 1.59826 1.64817 1.73683 1.81281 1.83877 1.8549 
1.82694 1.77938 1.6312 1.50103 1.47761 1.46523 1.52841 1.59543 1.69305 
1.78512 1.82404 1.86227 1.89201 1.92925 2.09442 2.25801 2.37595 2.48663 
2.49261 2.4986 
TEXTURE_COORDINATES TCoords 2 float
0 0 0.00787402 0 0.015748 0 0.023622 0 0.0314961 
0 0.0393701 0 0.0472441 0 0.0551181 0 0.0629921 0 
0.0708661 0 0.0787402 0 0.0866142 0 0.0944882 0 0.102362 
0 0.110236 0 0.11811 0 0.125984 0 0.133858 0 
0.141732 0 0.149606 0 0.15748 0 0.165354 0 0.173228 
0 0.181102 0 0.188976 0 0.19685 0 0.204724 0 
0.212598 0 0.220472 0 0.228346 0 0.23622 0 0.244094 
0 0.251969 0 0.259843 0 0.267717 0 0.275591 0 
0.283465 0 0.291339 0 0.299213 0 0.307087 0 0.314961 
0 0.322835 0 0.330709 0 0.338583 0 0.346457 0 
0.354331 0 0.362205 0 0.370079 0 0.377953 0 0.385827 
0 0.393701 0 0.401575 0 0.409449 0 0.417323 0 
0.425197 0 0.433071 0 0.440945 0 0.448819 0 0.456693 
0 0.464567 0 0.472441 0 0.480315 0 0.488189 0 
0.496063 0 0.503937 0 0.511811 0 0.519685 0 0.527559 
0 0.535433 0 0.543307 0 0.551181 0 0.559055 0 
0.566929 0 0.574803 0 0.582677 0 0.590551 0 0.598425 
0 0.606299 0 0.614173 0 0.622047 0 0.629921 0 
0.637795 0 0.645669 0 0.653543 0 0.661417 0 0.669291 
0 0.677165 0 0.685039 0 0.692913 0 0.700787 0 
0.708661 0 0.716535 0 0.724409 0 0.732283 0 0.740157 
0 0.748031 0 0.755906 0 0.76378 0 0.771654 0 
0.779528 0 0.787402 0 0.795276 0 0.80315 0 0.811024 
0 0.818898 0 0.826772 0 0.834646 0 0.84252 0 
0.850394 0 0.858268 0 0.866142 0 0.874016 0 0.88189 
0 0.889764 0 0.897638 0 0.905512 0 0.913386 0 
0.92126 0 0.929134 0 0.937008 0 0.944882 0 0.952756 
0 0.96063 0 0.968504 0 0.976378 0 0.984252 0 
0.992126 0 1 0 
FIELD FieldData 7
Curvature 1 128 double
0 0.039028496833 0.073474767048 0.10667904201 0.13788089939 0.16606280129 0.19002236665 0.20857490913 0.2208771206 
0.22672815632 0.22667162276 0.22183699995 0.21362752995 0.20343484674 0.19255805446 0.18231866323 0.1741745096 0.16961625126 
0.16972072214 0.17444684992 0.18232315936 0.19076504398 0.19697096246 0.1989210015 0.19600267106 0.18903216378 0.17969436306 
0.16978586268 0.16046398069 0.15200414695 0.14392695534 0.13556478189 0.12683335961 0.11936580021 0.11798712521 0.13222325728 
0.17577324417 0.26767663951 0.44615519037 0.79654448588 1.4620121147 2.3763691397 2.625773549 1.8562171673 1.0794447613 
0.63300546535 0.39580150688 0.26136813533 0.17907646199 0.13223618026 0.12715767266 0.17099676497 0.25700240201 0.38285385535 
0.54557048565 0.71918399565 0.84005512522 0.84493191017 0.74094868608 0.59424873684 0.4589435402 0.3531086053 0.27467078333 
0.21638220374 0.17175232153 0.13629576499 0.10730923782 0.083838324374 0.067035039987 0.060408169983 0.066565292394 0.082704853985 
0.10418123624 0.12771517535 0.15102574436 0.17225252438 0.18969209887 0.20200730163 0.20846911403 0.20913136761 0.20478150878 
0.19658220789 0.18590206059 0.17384821967 0.16125744001 0.14868500048 0.13634534598 0.12431427609 0.11250761411 0.10064889784 
0.088468051063 0.075715326011 0.062317346377 0.048598071481 0.035504285679 0.025679732302 0.024135685248 0.031593351392 0.042812376455 
0.05478342619 0.066621160012 0.078281259805 0.089998432999 0.10214304151 0.11504086636 0.12900655607 0.14436462835 0.16121783404 
0.17951502311 0.19865212424 0.21743393363 0.23370472766 0.24469633405 0.24744718077 0.23984836682 0.22143400818 0.1936924146 
0.15951529151 0.12229558897 0.085200645824 0.050830273592 0.021451341704 0.003108416452 0.016185426309 0.021785440417 0.019203885052 
0.01044618499 0 
Torsion 1 128 double
0 0 0.00201003134 0.0073371055612 0.016612376337 0.030015066242 0.046986624962 0.06606497053 0.084806411305 
0.099788816284 0.10676321615 0.10116732174 0.07916230947 0.038621301168 -0.019862543518 -0.091634444655 -0.16633166023 -0.2269610133 
-0.2557841456 -0.24615535879 -0.20689787233 -0.1534346401 -0.096832598944 -0.041661734962 0.011432481853 0.062424867022 0.11024114705 
0.15252250436 0.18754062948 0.21818613439 0.25376197543 0.31074515648 0.41280208567 0.58389673587 0.80499363417 0.93179878363 
0.84150524608 0.65261579532 0.48619985691 0.35465708898 0.23518731398 0.13643656666 0.075581384365 0.017162304107 -0.074514661775 
-0.18712507935 -0.31912829307 -0.51217517184 -0.8596775287 -1.4306263365 -1.6292431697 -1.1010781352 -0.6804540338 -0.46846944875 
-0.35732167248 -0.29101288011 -0.24708572315 -0.2146117874 -0.18212868319 -0.13938819991 -0.084110793085 -0.020189530571 0.047028528598 
0.11589185417 0.18912671218 0.27655464974 0.39877081807 0.58918436843 0.85918774909 1.0260258125 0.84348483453 0.54932074618 
0.34167973805 0.21474729037 0.13489687734 0.081444774406 0.04357052109 0.015231613162 -0.0072138243264 -0.026272867735 -0.043951603414 
-0.062063952977 -0.081982756699 -0.10446308933 -0.12961811467 -0.156395288 -0.18309651022 -0.20750040631 -0.22755820376 -0.24348713101 
-0.25812733109 -0.27953964354 -0.32447166828 -0.43149331317 -0.69558059415 -1.2200337966 -1.3069231194 -0.70744375303 -0.33458273779 
-0.15904340273 -0.072179385733 -0.03059203514 -0.016676155164 -0.021263560914 -0.037517249285 -0.059421608468 -0.081352876029 -0.099259585783 
-0.11072964018 -0.11485593197 -0.11252229075 -0.10505510476 -0.094328463257 -0.082107343935 -0.069292895856 -0.056727170011 -0.044322343957 
-0.031919054414 -0.017743016706 0.0036523454305 0.052041882795 0.31391532693 11.094006944 0.23772429329 0.059193641125 0.022981941621 
0 0 
Abscissas 1 128 double
0 0.50215358348 1.004307167 1.5064609828 2.0086148187 2.510768549 3.0129222753 3.5150750998 4.017227869 
4.5193808367 5.0215338208 5.5236879202 6.0258421343 6.5279952189 7.030148163 7.5323026812 8.0344574323 8.5366131295 
9.0387689906 9.5409216374 10.043073636 10.545225305 11.047376898 11.549529314 12.051681942 12.553838724 13.055996671 
13.558152601 14.060307901 14.562459857 15.064610648 15.566764046 16.06891845 16.571070841 17.073222382 17.575376611 
18.077532073 18.579685185 19.081837121 19.583989757 20.086142763 20.588298088 21.090454862 21.592610314 22.094765274 
22.596918903 23.099071952 23.601224918 24.103377846 24.605531171 25.107684695 25.609838198 26.111991689 26.614148 
27.116305974 27.618460613 28.120613177 28.622766979 29.124921425 29.627074256 30.129226198 30.631381269 31.133538177 
31.635692991 32.137846473 32.640000924 33.142156043 33.644310791 34.146465262 34.64862131 35.150778629 35.652920748 
36.155049553 36.657211402 37.159404642 37.661561398 38.163680725 38.665822785 39.167989904 39.670157839 40.172326736 
40.674478904 41.176609809 41.678752745 42.180912228 42.68306969 43.18522414 43.687378805 44.189533818 44.691686725 
45.193835921 45.695990705 46.198156203 46.700318776 47.202475232 47.704624603 48.206757698 48.708901748 49.211073585 
49.713235453 50.215369327 50.717511947 51.219681909 51.721849542 52.224009028 52.726168291 53.228326675 53.7304817 
54.232621666 54.734764673 55.236923306 55.739081657 56.24123834 56.743395552 57.245556388 57.747713736 58.249843304 
58.751976695 59.254146624 59.756315897 60.258477219 60.760636636 61.262763543 61.764891476 62.267048957 62.769206009 
63.271356884 63.773507758 
ParallelTransportNormals 3 128 double
-0.7636025694 -0.64568654624 0 -0.70148071688 -0.70364536622 -0.049108563807 -0.63935886437 -0.7616041862 -0.098217127613 
-0.57740774312 -0.79945014199 -0.14364502707 -0.51547138329 -0.83555713988 -0.18875469636 -0.42989871035 -0.86434738644 -0.23887832646 
-0.34342643454 -0.89285915597 -0.28919278893 -0.22311206256 -0.90432584105 -0.33858553694 -0.10072114957 -0.91474664478 -0.38792172882 
0.030685921081 -0.89489408224 -0.42300007256 0.16284208753 -0.87252629621 -0.45689382142 0.25919403295 -0.8329140146 -0.47782044801 
0.35186357697 -0.79152816683 -0.4974134288 0.40204889473 -0.75716098465 -0.51159640144 0.44694615549 -0.72366742326 -0.52510598459 
0.47370051603 -0.69726279922 -0.53673222478 0.49777114704 -0.67190678319 -0.5480798776 0.5249958903 -0.63587561035 -0.56354702491 
0.55276758859 -0.59799325712 -0.57972853432 0.59627405449 -0.52503232047 -0.59989923318 0.64295203655 -0.44500090798 -0.62087399722 
0.69955109336 -0.32658279566 -0.6202395608 0.75844167455 -0.19929829934 -0.61461393029 0.79820337671 -0.098163791949 -0.58495035741 
0.83305238354 -0.0037451474269 -0.54911333928 0.85025232132 0.048853221316 -0.52184701692 0.86250915723 0.089738684236 -0.49698115105 
0.87032732236 0.12148097848 -0.47598042603 0.87675876381 0.15036677599 -0.45618724323 0.88193568245 0.19995582091 -0.42144172512 
0.88667546667 0.25675884565 -0.38148611398 0.87762102639 0.33995071765 -0.3175714128 0.86324317399 0.4333264684 -0.24441051511 
0.83446050357 0.51285292435 -0.17284724811 0.7995892703 0.58652562349 -0.10195926037 0.77487051141 0.62787471617 -0.059658623106 
0.75480921064 0.65439532093 -0.030472462455 0.75934342291 0.64908331269 -0.033304565775 0.77619846495 0.62782513553 -0.052175837663 
0.8488950836 0.46463522027 -0.049282567623 0.95110526011 0.22643111636 -0.034886236491 0.97206730428 0.065052211801 0.093781539872 
0.94218959442 -0.048254520169 0.29395289426 0.90817988227 -0.071926670458 0.40396189455 0.8726346515 -0.062289166 0.48046511136 
0.83751854408 -0.039785969243 0.54085277918 0.80258935456 -0.011678723691 0.59422082297 0.7764643542 0.015252473844 0.62864694094 
0.75443186604 0.041637000838 0.65426815239 0.75174132187 0.042600854054 0.65791521067 0.75873832591 0.030832584658 0.65055636033 
0.78400310608 -0.041115400087 0.60777946273 0.81921476147 -0.14583147406 0.54571730056 0.80727688923 -0.33273363296 0.35166845834 
0.76753434795 -0.56810195913 0.079785412007 0.6479924835 -0.65110882851 -0.22058377181 0.47880240116 -0.63932197652 -0.53867598767 
0.37903194848 -0.57277506769 -0.71264002002 0.31534692909 -0.47776300588 -0.81168391848 0.27860527395 -0.39484351081 -0.87155721308 
0.25668232762 -0.31857486392 -0.9098868813 0.24245507639 -0.24538433586 -0.93602831719 0.23275122145 -0.17400307274 -0.9550057212 
0.22483325104 -0.10058947732 -0.96666715787 0.21804988204 -0.025884708218 -0.97368064187 0.21011744927 0.046926759964 -0.97429471812 
0.20139370179 0.11843438677 -0.97050177566 0.19225621531 0.17582367717 -0.96445887574 0.18281006277 0.22268011685 -0.95673741644 
0.17752970402 0.24719605186 -0.95254339559 0.17561459134 0.25366469519 -0.95119893931 0.18197563177 0.23795678783 -0.9534739443 
0.19558580441 0.20282430656 -0.95891925716 0.2192796731 0.15088056825 -0.96163044746 0.25255278451 0.082966583382 -0.96174429414 
0.2930574563 0.011731168827 -0.95278990823 0.34098095638 -0.062911686904 -0.93453245949 0.3879994574 -0.12654232628 -0.9106497085 
0.4340203167 -0.17803345391 -0.88056580594 0.47437860825 -0.21775516869 -0.85190350283 0.50804870726 -0.24357575191 -0.82492028439 
0.5382233274 -0.26381222409 -0.79986439693 0.56395520826 -0.27695131413 -0.77725813923 0.59042554374 -0.28823314859 -0.75319466872 
0.61791133424 -0.29696105559 -0.72712737287 0.64518932514 -0.30363360436 -0.70039813289 0.67215738741 -0.30724063025 -0.67268161737 
0.6903650424 -0.30936505933 -0.65396369767 0.69438133022 -0.30908776496 -0.64982299715 0.68515163456 -0.31161582598 -0.65749974387 
0.65259205523 -0.3190849029 -0.68599032215 0.61628180768 -0.32826116874 -0.71468761586 0.57277985871 -0.34071087606 -0.74378127512 
0.53623628393 -0.35105265546 -0.7673643731 0.51424439817 -0.35698623393 -0.77942351851 0.5001082055 -0.36085337558 -0.78718865103 
0.50401652398 -0.35997391607 -0.78509044463 0.51090902038 -0.35866329574 -0.78114690279 0.52537098412 -0.35625902156 -0.77252260575 
0.53789322705 -0.35431839218 -0.7649154496 0.54496831723 -0.35367977699 -0.76016464357 0.54750163556 -0.3531734111 -0.75856609225 
0.5358378998 -0.35308044128 -0.76682112494 0.52050564871 -0.35219865978 -0.77753364752 0.49233473529 -0.34855628285 -0.79684662013 
0.46380290602 -0.34395691402 -0.81614278728 0.43384699244 -0.33558149281 -0.83537264421 0.40644285995 -0.32731045908 -0.85295449147 
0.39047467603 -0.31950724367 -0.86315069194 0.37766584989 -0.31344414572 -0.8712710726 0.38108571788 -0.31631952077 -0.86872857574 
0.38591554438 -0.32186192708 -0.86443366767 0.39910419216 -0.34321560559 -0.84974973607 0.41150732068 -0.36633396426 -0.83429468008 
0.41853168447 -0.40153579436 -0.81355942676 0.42429834454 -0.43667054692 -0.79306894512 0.42004946775 -0.47127113749 -0.77452766647 
0.41543202524 -0.50474543696 -0.75664918724 0.40729125479 -0.52745288373 -0.74510678197 0.39961076504 -0.54877286051 -0.73427185649 
0.39750792471 -0.55327957293 -0.73201012168 0.3960067978 -0.55621148814 -0.73056127868 0.40477849902 -0.53225748004 -0.74299063344 
0.41314772235 -0.50651992652 -0.75646337248 0.40992754588 -0.42942496558 -0.79998048929 0.40691631791 -0.35733248736 -0.84067389854 
0.40691631791 -0.35733248736 -0.84067389854 0.40691631791 -0.35733248736 -0.84067389854 
FrenetTangent 3 128 double
-0.73958360029 0.45801082453 0.49319588685 -0.73958360029 0.45801082453 0.49319588685 -0.75461601638 0.43593395995 0.49042456136 
-0.77737134395 0.40019590569 0.48532157449 -0.80565068626 0.35096793897 0.47723000487 -0.83656994693 0.28874205838 0.46559504681 
-0.8667709981 0.21454519207 0.4501981757 -0.89276540029 0.13010474947 0.43132666763 -0.91138499366 0.037884384415 0.40980747522 
-0.92024376206 -0.059070623099 0.38686183564 -0.91807106306 -0.15746126634 0.36380141943 -0.90481189767 -0.25414226683 0.34165353511 
-0.88148287447 -0.34648527258 0.32083624779 -0.84985763424 -0.43260756804 0.30098620167 -0.81208998219 -0.51143473926 0.28097040469 
-0.77035429205 -0.58261880038 0.25905520293 -0.72654555648 -0.64634335458 0.23317766264 -0.68206770628 -0.70305010179 0.20125654877 
-0.63771861005 -0.75314453714 0.1615186694 -0.59368962585 -0.79674594335 0.11282078666 -0.54967688659 -0.83356820609 0.054948759242 
-0.50507937972 -0.86300078252 -0.011156592486 -0.45924523386 -0.88438970961 -0.083358603105 -0.41167160635 -0.89742999542 -0.15857456239 
-0.36209096151 -0.9024707697 -0.23331662055 -0.31042861971 -0.90056272905 -0.30433672653 -0.25670336482 -0.89322836019 -0.3691158071 
-0.20096076777 -0.88210770408 -0.42602906969 -0.1433153189 -0.86867493004 -0.4741988879 -0.084094763804 -0.85414547072 -0.51318961949 
-0.023987547906 -0.83957958495 -0.54270684359 0.035878531067 -0.82608530674 -0.56240181099 0.093993046108 -0.81500865106 -0.57177461118 
0.14864784321 -0.80801608441 -0.57009983866 0.19814652152 -0.80703478701 -0.55626685014 0.24088612447 -0.8140984628 -0.52841041617 
0.27519450811 -0.83113193647 -0.48320563623 0.29874797638 -0.85956943189 -0.41459623535 0.30725375485 -0.89919802871 -0.31150928603 
0.29164193778 -0.9440080334 -0.1542524327 0.23314295257 -0.96858835808 0.086492521354 0.10495050907 -0.90101776933 0.42089472556 
-0.082318148897 -0.65890780804 0.74770597354 -0.24517498872 -0.32305156397 0.91407161203 -0.33956676411 -0.04081230378 0.93969610437 
-0.38356955903 0.15815747016 0.90986845644 -0.39810137708 0.29628936466 0.86817504339 -0.39402889157 0.393997102 0.83036589298 
-0.37626168012 0.46297714151 0.80254552177 -0.34689942575 0.50880850585 0.78789256424 -0.30660772481 0.53306355223 0.78856512247 
-0.25517594575 0.53414776942 0.80595992279 -0.1918190797 0.50732968833 0.84013214913 -0.11573427133 0.44459979372 0.8882210321 
-0.027512654494 0.33577489467 0.94154037298 0.068089968941 0.17365566958 0.98244972622 0.15943022307 -0.03509923704 0.98658504323 
0.23069317548 -0.26226027124 0.93701665349 0.27189906119 -0.47030874308 0.83957166859 0.28508674833 -0.63590225812 0.71718467918 
0.27956686617 -0.75630700095 0.59147450296 0.26487015488 -0.83959154631 0.47426768436 0.24791148687 -0.89546752553 0.36969961509 
0.23306285368 -0.9317951031 0.27827970116 0.222923436 -0.95421842281 0.199430046 0.21891930506 -0.96669451729 0.13257468881 
0.22169788233 -0.97203281328 0.077474246589 0.23136903219 -0.97226349321 0.034235518382 0.24766936533 -0.96883935398 0.0031924372969 
0.27010461338 -0.96271040076 -0.01523752279 0.29805082954 -0.95432565981 -0.020693913081 0.33080050662 -0.94361118674 -0.012998194932 
0.3675630354 -0.92996650387 0.0077276575677 0.40742968431 -0.91231875206 0.040933445755 0.4493034276 -0.88927756036 0.085509359664 
0.49187260387 -0.859388536 0.13968781537 0.53365315279 -0.8214624645 0.20103166896 0.57311702307 -0.77490703888 0.26656323633 
0.60890095501 -0.71994200145 0.33305125961 0.64002014029 -0.65761160661 0.39739299802 0.6660088117 -0.58958402534 0.45697148687 
0.6869401383 -0.51783618612 0.50986167804 0.70334682451 -0.44433257467 0.55486197162 0.71607573922 -0.37081065324 0.59138396592 
0.72612577596 -0.29871956084 0.61928021239 0.73451293925 -0.22923828465 0.63870223965 0.74215296917 -0.16336965223 0.65001486682 
0.74977751811 -0.10202905128 0.65377652606 0.75787720743 -0.046079279464 0.65076788371 0.76667084567 0.0036497191048 0.64202997901 
0.7761227955 0.046399855754 0.62887237155 0.78599344769 0.081559870349 0.61283136975 0.79591573998 0.10871855482 0.59556562248 
0.80547668146 0.12771199215 0.57870282762 0.81428853005 0.13861138499 0.5636675206 0.82203942102 0.14168359978 0.55152239106 
0.82851002072 0.13732511199 0.54287471775 0.83357360588 0.12599019177 0.53784897058 0.83718158832 0.10812958721 0.53612963036 
0.83932814599 0.084133220142 0.53707528766 0.83999969325 0.054313669298 0.539861594 0.83910615991 0.018885781913 0.54363975172 
0.83639947752 -0.022029487174 0.54767747416 0.83139867565 -0.068384902353 0.551452398 0.8233330647 -0.12016374516 0.55469211182 
0.81111754054 -0.17731166194 0.55735887 0.79336145502 -0.23967116708 0.55958496527 0.76843260414 -0.30686095701 0.56155826585 
0.73457616303 -0.37813777969 0.56339123198 0.69010929125 -0.45224457657 0.5649991231 0.63372669526 -0.52727965937 0.56600939615 
0.56492252901 -0.60064125369 0.56576728483 0.48448968052 -0.66917349923 0.5634505989 0.39490577926 -0.72960711382 0.5583214889 
0.30036325338 -0.77924938346 0.55004755648 0.20626189213 -0.81670845755 0.53892794251 0.11824664772 -0.84227336157 0.52592139593 
0.041171549109 -0.85775281068 0.51241098672 -0.021616739357 -0.86584033068 0.4998532168 -0.068507304964 -0.86935294519 0.48942027528 
-0.099495880005 -0.87061789345 0.48179357972 -0.11593651587 -0.87116673463 0.47710297082 -0.12031183534 -0.87173179438 0.47498288489 
-0.11600698217 -0.87244358077 0.47474685724 -0.10697730362 -0.87315031703 0.4755674299 -0.097234578075 -0.87368103359 0.47668321595 
-0.090188506313 -0.87397545206 0.47752794947 -0.090188506313 -0.87397545206 0.47752794947 
FrenetNormal 3 128 double
-0.5697756231 -0.81611114244 -0.096531562211 -0.5697756231 -0.81611114244 -0.096531562211 -0.54975204514 -0.82807554732 -0.10983431514 
-0.51656799648 -0.84639967888 -0.12948007034 -0.46948551967 -0.86957038859 -0.15307085325 -0.4079931955 -0.89552311718 -0.17770734095 
-0.33216867383 -0.92171153701 -0.2002793416 -0.24300074605 -0.94524878186 -0.21784255279 -0.14262808712 -0.96311992983 -0.22816053457 
-0.034388710776 -0.97251269295 -0.23029650153 0.077324200856 -0.97123046157 -0.22523844803 0.18742574348 -0.95815312046 -0.21636586709 
0.29070367226 -0.93358921983 -0.20952933818 0.3825005056 -0.89920770712 -0.21241201158 0.45905861256 -0.85718198842 -0.23346140786 
0.51744640857 -0.80864058565 -0.27991001679 0.55519621882 -0.75215622133 -0.35499039046 0.57082447599 -0.68386747516 -0.45440586927 
0.56628466912 -0.6005573186 -0.56449320686 0.54896791949 -0.50352964271 -0.6671522482 0.52990425547 -0.39877088965 -0.74845391147 
0.51864626462 -0.29315966736 -0.80315842872 0.52032147092 -0.19175620801 -0.8321629189 0.53638380221 -0.097929817629 -0.83827332508 
0.56630752187 -0.01416675216 -0.82407226249 0.60892854076 0.057457982809 -0.79114133532 0.66219886444 0.11563344304 -0.74035232882 
0.7230053357 0.15988177445 -0.67208712438 0.78666871818 0.19074334664 -0.58717059153 0.84821521072 0.20891468097 -0.48670896065 
0.90382835519 0.21377686799 -0.37066663603 0.95077886317 0.20153877106 -0.23537560858 0.98410739668 0.16297010203 -0.070522178344 
0.98668682629 0.082725412092 0.14002004505 0.91458381996 -0.051883285373 0.40105431174 0.71845797551 -0.21646997229 0.66102865938 
0.44017941396 -0.33790649402 0.83190220869 0.18428174797 -0.37429952377 0.90881246903 -0.011988421898 -0.33097516937 0.94356330736 
-0.16480990067 -0.20844342443 0.9640482537 -0.29406715063 0.014556196613 0.95567391304 -0.39431310133 0.35083878042 0.8493699596 
-0.42054318108 0.70315009786 0.5733440265 -0.36017117865 0.90571926104 0.22349349487 -0.26398128909 0.96303925227 -0.053565638267 
-0.1578997647 0.95948763982 -0.23334766623 -0.035314017186 0.94075199658 -0.33725153984 0.12559500502 0.91806414098 -0.37601080804 
0.36090996176 0.87101910223 -0.33327124545 0.69470196482 0.70377664328 -0.14861903129 0.94410330142 0.2757044973 0.18070967442 
0.89613369346 -0.18236061973 0.40458498219 0.75737700253 -0.46789494107 0.45547162388 0.63970933571 -0.6507174413 0.40907062642 
0.54305950611 -0.78575947349 0.29608853854 0.45054493221 -0.88395650904 0.12502061504 0.34831125541 -0.93309811986 -0.089482780874 
0.23349928133 -0.91993183837 -0.31496586858 0.1156274935 -0.85015313142 -0.51368271909 0.0093826535666 -0.74634787198 -0.66548990962 
-0.074356750367 -0.63124292883 -0.77201258958 -0.1293778169 -0.5183291751 -0.84533794824 -0.15285902566 -0.41298865336 -0.8978165127 
-0.14300535408 -0.31588885078 -0.9379571966 -0.097479174753 -0.22537256664 -0.96938383352 -0.011522958127 -0.13842236468 -0.99030625081 
0.1255856605 -0.050327343444 -0.99080543013 0.33079442053 0.045527831984 -0.94260398252 0.60997801211 0.15337006649 -0.77743452936 
0.87435566318 0.25188053471 -0.41479919298 0.95416901348 0.29724939796 0.034702869035 0.88161584085 0.3040949115 0.36094292341 
0.77635937161 0.31140442978 0.54799033497 0.68171268284 0.33365755079 0.65110710091 0.60177799191 0.37200258484 0.70673709775 
0.5325397222 0.42388181849 0.73261562107 0.46981678767 0.48561857454 0.73718843323 0.41089528644 0.55318029662 0.7246769094 
0.3545878897 0.62260727788 0.69758698813 0.30095438516 0.69042709331 0.657827399 0.25093338035 0.75398666028 0.60707211659 
0.20603362757 0.8115894089 0.54669257876 0.16806528462 0.8623796224 0.47755151238 0.13882301592 0.90595744295 0.39996160043 
0.11985726258 0.94189349597 0.31380069925 0.11232029409 0.96930055558 0.21872490598 0.11646727373 0.9865180438 0.1149674885 
0.13182297121 0.99126703079 0.0035182274673 0.15676646338 0.98113885963 -0.11309648128 0.18929330056 0.95424909317 -0.23146644366 
0.22767596751 0.90939608729 -0.34808391265 0.27155540833 0.84497070339 -0.46074089315 0.32330586838 0.7553922089 -0.56996133747 
0.38882001249 0.62306008134 -0.67868632882 0.47702001891 0.39350080251 -0.78588104697 0.56313475775 -0.058647205197 -0.82428135363 
0.48311608107 -0.6654880743 -0.56896790347 0.27587202333 -0.93848200823 -0.20771650625 0.13430639653 -0.99089064861 -0.0098749355774 
0.051044392523 -0.9957836571 0.076219277329 -0.0034567255391 -0.99442136426 0.10542391262 -0.045729300768 -0.99341036941 0.10509362012 
-0.085298102739 -0.9922502183 0.090353405867 -0.12823339359 -0.98922368242 0.070659061094 -0.17854096382 -0.98254903974 0.052158496364 
-0.23830565612 -0.97044345606 0.038077721226 -0.30791345627 -0.9509646369 0.029250005501 -0.38597031249 -0.92219291468 0.024231095549 
-0.46998323512 -0.88243699937 0.020510993465 -0.55663775644 -0.83061916127 0.015040513073 -0.64225745162 -0.7664722084 0.0050714482579 
-0.72324790622 -0.69050251122 -0.010897161949 -0.79595580749 -0.60443090165 -0.033431088115 -0.85739511247 -0.51099314091 -0.061315830359 
-0.9054039793 -0.41433514748 -0.09257440156 -0.93936117182 -0.31948001155 -0.12463190245 -0.9603748847 -0.2316223837 -0.15501984458 
-0.97087356578 -0.15549355218 -0.18228075735 -0.974088551 -0.094345142238 -0.20554923729 -0.9725052249 -0.051254524142 -0.22717077562 
-0.96706949075 -0.029384906299 -0.25281045733 -0.94676610559 -0.048309948189 -0.31827675099 0.60890959336 -0.44268640274 -0.65822325692 
0.99319746862 -0.097052032079 0.064340433606 0.99210674966 -0.062269976675 0.1088423047 0.9918209813 -0.045271318318 0.11933837937 
0.99213064075 -0.037030427554 0.1196057654 0.99213064075 -0.037030427554 0.1196057654 
FrenetBinormal 3 128 double
0.35829015826 -0.35240415406 0.86454581989 0.35829015826 -0.35240415406 0.86454581989 0.35822807914 -0.35249463895 0.86453465681 
0.35895863079 -0.35135568968 0.86469525309 0.3612621189 -0.3473742148 0.86534434553 0.36563954425 -0.33862423175 0.86697252168 
0.37198388267 -0.3231380558 0.87017802082 0.37936865641 -0.29929499586 0.8755009583 0.38605002538 -0.26639214364 0.88317642842 
0.38983180342 -0.22523259873 0.89291737664 0.38880135177 -0.1786542474 0.90383414892 0.38234411271 -0.13173574296 0.91458114648 
0.37212809212 -0.091428247875 0.92366745019 0.36254015604 -0.065392595326 0.92967114817 0.36024304444 -0.060609786399 0.93088742753 
0.37256338921 -0.08158269845 0.9244137517 0.40483170944 -0.12845733418 0.90532314691 0.45710290051 -0.19505340498 0.86776212613 
0.522146194 -0.26852227701 0.80948078349 0.58835945775 -0.3341463761 0.73632828807 0.64579934994 -0.38229023446 0.66090648072 
0.68985568953 -0.41144508601 0.59566103517 0.71997179256 -0.42554012528 0.54823007916 0.73676244831 -0.43015015301 0.5216818385 
0.74039579029 -0.43051807507 0.51620563806 0.7299589744 -0.4309122315 0.53054174617 0.70398582829 -0.43447900227 0.56181131189 