# vtk DataFile Version 4.2
vtk output
ASCII
DATASET POLYDATA
POINTS 128 float
0 0 0 -0.219934 0.0916241 0.235076 -0.663559 0.279209 0.685839 
-1.05988 0.452482 1.03449 -1.41249 0.607636 1.29259 -1.79539 0.768576 1.55459 
-2.20619 0.931324 1.81664 -2.62609 1.08589 2.05406 -3.05524 1.22911 2.26794 
-3.49826 1.3594 2.46546 -3.95438 1.47314 2.64679 -4.42139 1.56602 2.81038 
-4.89791 1.63353 2.95682 -5.38256 1.67084 3.08736 -5.87249 1.67193 3.20311 
-6.36398 1.63036 3.3052 -6.85106 1.53973 3.39544 -7.32682 1.3945 3.47578 
-7.78347 1.1941 3.54783 -8.21374 0.940777 3.61285 -8.61586 0.642803 3.67043 
-8.99087 0.310708 3.71943 -9.3443 -0.0454697 3.75776 -9.6836 -0.416091 3.78283 
-10.0167 -0.792916 3.79111 -10.3518 -1.16822 3.7785 -10.6955 -1.53365 3.73964 
-11.0535 -1.88067 3.66865 -11.4263 -2.20141 3.56031 -11.8116 -2.48881 3.41008 
-12.2032 -2.73999 3.2166 -12.5928 -2.95459 2.98027 -12.9722 -3.13621 2.70317 
-13.3335 -3.29066 2.38815 -13.6686 -3.42583 2.03749 -13.9693 -3.55072 1.65312 
-14.2246 -3.67486 1.23698 -14.4217 -3.80798 0.791641 -14.5451 -3.95875 0.32622 
-14.5791 -4.13467 -0.145845 -14.5198 -4.33705 -0.605445 -14.3711 -4.56334 -1.03106 
-14.1471 -4.80868 -1.41151 -13.8674 -5.06702 -1.74238 -13.5468 -5.33498 -2.02382 
-13.1967 -5.61096 -2.25867 -12.8258 -5.89457 -2.44738 -12.4408 -6.18628 -2.58846 
-12.0475 -6.48844 -2.67573 -11.6516 -6.80435 -2.69896 -11.2738 -7.13388 -2.63582 
-10.9452 -7.47365 -2.45767 -10.6944 -7.80932 -2.16932 -10.5461 -8.11969 -1.80065 
-10.4927 -8.40088 -1.3838 -10.5036 -8.66216 -0.951054 -10.5569 -8.9131 -0.518612 
-10.6382 -9.16318 -0.0901559 -10.7363 -9.41997 0.331228 -10.8428 -9.68943 0.74267 
-10.9502 -9.97691 1.14133 -11.0515 -10.2872 1.52437 -11.1404 -10.6231 1.88851 
-11.211 -10.9858 2.2302 -11.2595 -11.3739 2.54732 -11.2839 -11.7832 2.83916 
-11.2839 -12.2095 3.10678 -11.2605 -12.6479 3.35285 -11.2149 -13.0941 3.5808 
-11.1479 -13.5446 3.79467 -11.0597 -13.9961 3.99827 -10.9492 -14.4458 4.19512 
-10.815 -14.8905 4.38829 -10.6547 -15.3271 4.58041 -10.4659 -15.7517 4.77359 
-10.2459 -16.1599 4.96943 -9.99315 -16.5469 5.16893 -9.70682 -16.9074 5.3725 
-9.38783 -17.2371 5.58016 -9.03901 -17.5322 5.79151 -8.66442 -17.7911 6.00629 
-8.26958 -18.0145 6.22439 -7.85984 -18.2048 6.44607 -7.44026 -18.3664 6.67207 
-7.01514 -18.5039 6.90331 -6.58776 -18.622 7.14097 -6.16071 -18.7249 7.3861 
-5.7357 -18.8156 7.63943 -5.31402 -18.8964 7.90153 -4.89642 -18.9679 8.17269 
-4.48334 -19.0301 8.45293 -4.0748 -19.0817 8.74185 -3.67062 -19.1211 9.03875 
-3.27037 -19.146 9.34243 -2.87359 -19.1551 9.65156 -2.47987 -19.1482 9.96455 
-2.08874 -19.1269 10.2801 -1.69973 -19.0954 10.5975 -1.3125 -19.0595 10.9164 
-0.927032 -19.0269 11.2379 -0.543793 -19.0063 11.5632 -0.164233 -19.0067 11.8935 
0.20922 -19.037 12.2296 0.572281 -19.1054 12.5715 0.919954 -19.2185 12.918 
1.24618 -19.3793 13.2663 1.54525 -19.589 13.6133 1.8126 -19.8447 13.9552 
2.04468 -20.1426 14.2886 2.24 -20.4771 14.6105 2.39813 -20.8425 14.9188 
2.52041 -21.2327 15.2126 2.60901 -21.6422 15.4914 2.66745 -22.0663 15.7561 
2.69977 -22.501 16.0075 2.7108 -22.9433 16.2471 2.70583 -23.3909 16.4761 
2.691 -23.8436 16.6955 2.6723 -24.3009 16.9058 2.65471 -24.7608 17.1065 
2.64419 -25.2237 17.2966 2.65049 -25.6975 17.4749 2.67967 -26.183 17.6394 
2.7225 -26.6501 17.786 2.77981 -27.0932 17.9131 2.90215 -27.6224 18.0286 
3.09758 -28.2442 18.13 3.20564 -28.558 18.175 
LINES 1 129
128 0 1 2 3 4 5 6 7 8 9 10 11 12 13 14 15 16 17 18 19 20 21 22 23 24 25 26 27 28 29 30 31 32 33 34 35 36 37 38 39 40 41 42 43 44 45 46 47 48 49 50 51 52 53 54 55 56 57 58 59 60 61 62 63 64 65 66 67 68 69 70 71 72 73 74 75 76 77 78 79 80 81 82 83 84 85 86 87 88 89 90 91 92 93 94 95 96 97 98 99 100 101 102 103 104 105 106 107 108 109 110 111 112 113 114 115 116 117 118 119 120 121 122 123 124 125 126 127 

CELL_DATA 1
FIELD FieldData 2
Length 1 1 double
59.55807473 
Tortuosity 1 1 double
0.75158223012 
POINT_DATA 128
SCALARS MaximumInscribedSphereRadius float
LOOKUP_TABLE default
0.93 0.948462 0.966925 1.02088 1.0781 1.1566 1.23561 1.2398 1.23999 
1.19515 1.14701 1.06372 0.977192 1.03778 1.11494 1.12404 1.12408 1.05279 
0.970558 1.05227 1.16246 1.2413 1.31402 1.2921 1.24938 1.16073 1.0608 
1.10761 1.19432 1.29791 1.40654 1.4802 1.54255 1.57117 1.58795 1.64302 
1.71267 1.71502 1.68973 1.66373 1.63743 1.67266 1.7362 1.66595 1.53046 
1.42882 1.34484 1.37204 1.4614 1.51197 1.5394 1.60636 1.69823 1.77974 
1.85465 1.85424 1.8031 1.68676 1.52344 1.52069 1.64205 1.79781 1.98204 
2.02467 1.94218 1.84708 1.7401 1.67459 1.65083 1.67953 1.76468 1.82172 
1.84639 1.87747 1.91646 1.97753 2.06767 2.1306 2.15522 2.15294 2.11023 
2.06327 2.00949 2.02131 2.14636 2.21718 2.18724 2.08658 1.84416 1.66126 
1.60737 1.61754 1.77813 1.96292 2.20941 2.3756 2.31864 2.27886 2.29134 
2.31907 2.39777 2.46183 2.47191 2.48862 2.53236 2.55954 2.51196 2.43434 
2.20604 2.03218 2.165 2.29929 2.44295 2.58162 2.68323 2.77742 2.80613 
2.82863 2.78393 2.7338 2.60891 2.49012 2.48643 2.47894 2.31329 2.13692 
1.84346 1.55 
TEXTURE_COORDINATES TCoords 2 float
0 0 0.00787402 0 0.015748 0 0.023622 0 0.0314961 
0 0.0393701 0 0.0472441 0 0.0551181 0 0.0629921 0 
0.0708661 0 0.0787402 0 0.0866142 0 0.0944882 0 0.102362 
0 0.110236 0 0.11811 0 0.125984 0 0.133858 0 
0.141732 0 0.149606 0 0.15748 0 0.165354 0 0.173228 
0 0.181102 0 0.188976 0 0.19685 0 0.204724 0 
0.212598 0 0.220472 0 0.228346 0 0.23622 0 0.244094 
0 0.251969 0 0.259843 0 0.267717 0 0.275591 0 
0.283465 0 0.291339 0 0.299213 0 0.307087 0 0.314961 
0 0.322835 0 0.330709 0 0.338583 0 0.346457 0 
0.354331 0 0.362205 0 0.370079 0 0.377953 0 0.385827 
0 0.393701 0 0.401575 0 0.409449 0 0.417323 0 
0.425197 0 0.433071 0 0.440945 0 0.448819 0 0.456693 
0 0.464567 0 0.472441 0 0.480315 0 0.488189 0 
0.496063 0 0.503937 0 0.511811 0 0.519685 0 0.527559 
0 0.535433 0 0.543307 0 0.551181 0 0.559055 0 
0.566929 0 0.574803 0 0.582677 0 0.590551 0 0.598425 
0 0.606299 0 0.614173 0 0.622047 0 0.629921 0 
0.637795 0 0.645669 0 0.653543 0 0.661417 0 0.669291 
0 0.677165 0 0.685039 0 0.692913 0 0.700787 0 
0.708661 0 0.716535 0 0.724409 0 0.732283 0 0.740157 
0 0.748031 0 0.755906 0 0.76378 0 0.771654 0 
0.779528 0 0.787402 0 0.795276 0 0.80315 0 0.811024 
0 0.818898 0 0.826772 0 0.834646 0 0.84252 0 
0.850394 0 0.858268 0 0.866142 0 0.874016 0 0.88189 
0 0.889764 0 0.897638 0 0.905512 0 0.913386 0 
0.92126 0 0.929134 0 0.937008 0 0.944882 0 0.952756 
0 0.96063 0 0.968504 0 0.976378 0 0.984252 0 
0.992126 0 1 0 
FIELD FieldData 7
Curvature 1 128 double
0 0.017829467034 0.033101277305 0.047150340011 0.059758085231 0.070981247889 0.081127916038 0.090681001092 0.10018702387 
0.11010728371 0.12070613321 0.13193180418 0.14336682252 0.15419337862 0.16328100985 0.16932075885 0.17111232576 0.16789724002 
0.15966578805 0.1473271912 0.13266025634 0.11826359013 0.10727155783 0.10270099481 0.10593693431 0.11575968253 0.12935519344 
0.14388728571 0.15730908628 0.16854986576 0.17762652868 0.18555666459 0.1941308122 0.20532666538 0.22061858665 0.24036624959 
0.26350290915 0.28753612833 0.30919122911 0.325281577 0.33386824732 0.33519252312 0.33171058695 0.32723262462 0.3257484968 
0.33039440912 0.34266555435 0.36165968373 0.38344108836 0.40093142355 0.40550888052 0.39064507653 0.35558976421 0.30582564317 
0.24969783498 0.19448288886 0.14486366047 0.10340678307 0.072512888394 0.056412340901 0.057307452652 0.068200608204 0.081039101635 
0.092025162619 0.099908025089 0.10458631822 0.10662149526 0.10699358299 0.10686647249 0.10732870695 0.10916826899 0.11274598829 
0.11789948854 0.1240609301 0.13040143889 0.13599496377 0.139993277 0.14163689922 0.14057740353 0.13670080086 0.13037086434 
0.12211787527 0.11272643774 0.10295664702 0.093552082572 0.084967677915 0.077558308182 0.071283616376 0.065950142081 0.061151621314 
0.056465660949 0.051385003362 0.045597214718 0.038942274894 0.031902756182 0.026317504933 0.026430311646 0.034934267436 0.049467341978 
0.067383674211 0.087151472823 0.10772513834 0.12796115825 0.14680857103 0.16303477106 0.17544294171 0.18318496716 0.18569968132 
0.18301072749 0.17554036963 0.16417231362 0.14991372976 0.13381929297 0.1169049721 0.10016348086 0.084573571671 0.07126314132 
0.061443556807 0.055965264478 0.054409790298 0.054968667242 0.05530421356 0.053519735999 0.048457719913 0.039825360644 0.02792854281 
0.013656984775 0 
Torsion 1 128 double
0 0 0.069987988994 0.096554263719 0.1238702619 0.1501442839 0.17319122626 0.19040011724 0.19927410491 
0.19859349601 0.18851179301 0.17052438242 0.14686648589 0.11946037127 0.089351208878 0.056677401107 0.020399458472 -0.021827929809 
-0.073946438663 -0.14166248022 -0.23107221838 -0.34207887625 -0.45096201451 -0.49834452845 -0.44215722488 -0.31874278447 -0.18771826673 
-0.074666661995 0.020208528573 0.10318064586 0.17833540159 0.24528485823 0.29874901682 0.33121496073 0.33890122555 0.32541999885 
0.29992813335 0.27232770289 0.24951107537 0.2351866882 0.23077828409 0.23615386287 0.24926134806 0.26609022249 0.28068492191 
0.28617011207 0.27872306907 0.25937368518 0.23318384482 0.20669894473 0.18501388835 0.17108439369 0.16687026515 0.17466026108 
0.19872456935 0.24885259907 0.34646312053 0.53754696698 0.88532417822 1.2123112319 0.9957040983 0.61150160237 0.39034504287 
0.28545348273 0.24024685853 0.22730978683 0.23312145744 0.24899817997 0.26656346857 0.27724291671 0.27481880054 0.25783466531 
0.23019999507 0.1985265398 0.16827985514 0.14317817171 0.12416041463 0.11155318648 0.10494924162 0.10373610258 0.10731340554 
0.11495481926 0.12579066042 0.13801902381 0.14919625162 0.15636638911 0.15630370415 0.14863531141 0.13532192832 0.12185340789 
0.11598443553 0.12892222694 0.17643302385 0.2889426818 0.5315801417 0.94580800549 1.0905618148 0.69100232711 0.36129344002 
0.19256604009 0.10689066419 0.059802946757 0.032285239326 0.01565816075 0.0052502558142 -0.00073274256703 -0.0033034038838 -0.0028769029465 
0.00071794515206 0.0081554845353 0.020756121961 0.040182447127 0.069227679279 0.11215859828 0.17459645198 0.26206296958 0.37268037313 
0.47873942311 0.51987190929 0.46458640476 0.35711759783 0.25316915099 0.17371476944 0.11690780905 0.076171313521 0.048324327163 
0 0 
Abscissas 1 128 double
0 0.50297748759 1.0059549752 1.5089321274 2.0119092487 2.5148875719 3.0178659239 3.5208448972 4.0238239037 
4.5267980404 5.0297718208 5.5327515764 6.0357318841 6.5387069359 7.0416813961 7.5446605473 8.0476403227 8.550615654 
9.0535903033 9.5565687658 10.05954789 10.562526854 11.065505785 11.568482231 12.07145813 12.574435864 13.077414049 
13.580384121 14.083351988 14.586335867 15.089324513 15.59231462 16.0953052 16.598275839 17.101239472 17.604222276 
18.107212384 18.61018835 19.113158509 19.616131355 20.119105376 20.622095107 21.125092066 21.628057522 22.131007617 
22.633975166 23.136951825 23.63993627 24.142925068 24.645905497 25.148880932 25.651857108 26.154833752 26.657810921 
27.160788425 27.663767732 28.166748254 28.669722754 29.172692915 29.675673674 30.178662623 30.681643062 31.184616461 
31.687579517 32.190533435 32.69349931 33.196476459 33.699466199 34.202468616 34.705459596 35.208438268 35.711412189 
36.214380639 36.717359017 37.220349631 37.723342656 38.226338859 38.729320573 39.232281898 39.735248682 40.238223673 
40.741199595 41.244177011 41.747153674 42.250129037 42.753105458 43.256083843 43.759062142 44.262040269 44.765017882 
45.267994382 45.770971142 46.273948513 46.776925619 47.27990205 47.782875459 48.285840467 48.788814538 49.291816171 
49.794813585 50.297796901 50.800777515 51.303748168 51.806715422 52.309668826 52.812632457 53.315642239 53.818641484 
54.321587896 54.824542028 55.327539659 55.830536409 56.333527509 56.83651355 57.33946201 57.842412646 58.345382504 
58.848352726 59.351326874 59.854301553 60.357283533 60.860267132 61.363281356 61.866294336 62.369255813 62.872218471 
63.375194014 63.878169557 
ParallelTransportNormals 3 128 double
0 -0.92552066942 0.37869709594 -0.025719844028 -0.91444786382 0.4020944584 -0.051439688056 -0.90337505822 0.42549182085 
-0.062811130992 -0.89855463687 0.43415734736 -0.072863750203 -0.89430889926 0.44146880699 -0.074985679575 -0.89349859413 0.44275467681 
-0.07691697752 -0.89277086712 0.44389570844 -0.068467908316 -0.89535895915 0.43992759417 -0.059464331617 -0.89812417849 0.43568655511 
-0.037932870079 -0.90281104339 0.4276572985 -0.015484854086 -0.9076384981 0.41935089154 0.024284744056 -0.91171331404 0.4078066856 
0.065654551588 -0.9157185994 0.39596336399 0.13012991436 -0.91259692872 0.38141444421 0.19720595777 -0.90867307275 0.36656099174 
0.28545350191 -0.8868676905 0.35048689578 0.37651873447 -0.8626824784 0.33425034591 0.46606739342 -0.81850280431 0.32013071104 
0.55538335036 -0.7712551937 0.30633589416 0.61650412191 -0.72516066477 0.29797418237 0.67272825114 -0.67926639089 0.29055603496 
0.69736691425 -0.65571744304 0.28811785709 0.71583479564 -0.63653405145 0.28665260471 0.70753225998 -0.64584796609 0.28608196238 
0.69334970968 -0.66142119963 0.28570781755 0.65416394509 -0.70016696053 0.27900372809 0.60883915446 -0.74460225987 0.27074545066 
0.54833200585 -0.79354123564 0.25020525233 0.48369600994 -0.8437049877 0.22632498153 0.4243644919 -0.88121386451 0.19494330433 
0.3666123562 -0.9149548141 0.16132812006 0.32906953337 -0.93390155815 0.13336090361 0.29806850344 -0.94805938982 0.10722194504 
0.29039869023 -0.95156972357 0.10091056743 0.29092679206 -0.95133883438 0.10156602856 0.30664155175 -0.94073198968 0.13542885099 
0.32814244115 -0.92617189701 0.18194370663 0.34171307954 -0.89570885896 0.26558077358 0.35202622575 -0.85871340217 0.36446645159 
0.33277934839 -0.80829637938 0.47033486618 0.30059879459 -0.75200689199 0.5792585035 0.25143710217 -0.69635204792 0.66420330418 
0.19446253715 -0.64098919765 0.73811565292 0.1342476395 -0.58934619129 0.79196410807 0.072452767848 -0.53951696682 0.83602948417 
0.0030293725032 -0.48536250339 0.86951962846 -0.07037484521 -0.42895098358 0.89749125816 -0.16974626978 -0.34903641932 0.91119307397 
-0.28363596653 -0.25598129672 0.91691663308 -0.42667665275 -0.11644432534 0.86703325867 -0.58711178787 0.050828450516 0.78396912497 
-0.69725709195 0.2076849668 0.65023149017 -0.77571249435 0.35797772587 0.48456218582 -0.8075129361 0.45420416258 0.36107373643 
-0.80953351245 0.51592006109 0.26450933039 -0.80745687464 0.55096439948 0.20854483581 -0.80261951864 0.56803734122 0.17993671291 
-0.80205995648 0.5712536034 0.17389213433 -0.80458338616 0.56448340251 0.18410902743 -0.81087791659 0.54499172334 0.20886656153 
-0.82008670584 0.51566904707 0.24486091861 -0.8295459642 0.47461547702 0.2873994623 -0.83921243462 0.42385698767 0.33535198416 
-0.84564943088 0.36853816779 0.38055982803 -0.84923292006 0.3091899193 0.42334252224 -0.84953292345 0.25278641632 0.4598288643 
-0.84673710224 0.1991593577 0.49037870984 -0.84205038804 0.15037937742 0.51624390007 -0.83545998072 0.10647928712 0.53739272285 
-0.82737453957 0.065108360202 0.556615419 -0.81768021787 0.026459192258 0.57376531414 -0.80580316578 -0.011987390978 0.59086811471 
-0.7914125895 -0.050200687703 0.60791668353 -0.77374470568 -0.088888411895 0.6258963301 -0.75203784274 -0.12816082416 0.64502344407 
-0.7268243409 -0.16634286516 0.66499670921 -0.69699054184 -0.20308824858 0.68608485104 -0.66573783382 -0.23607313681 0.70678675864 
-0.63248825828 -0.2637657823 0.72694510878 -0.60174162816 -0.2864526281 0.74504230201 -0.57475814962 -0.30161330776 0.76004056792 
-0.55286785341 -0.31298577507 0.77214467719 -0.53917061958 -0.31826439806 0.77959314986 -0.53034607683 -0.32164879816 0.78439463629 
-0.52993277012 -0.32176339198 0.7846268969 -0.53242226322 -0.32125114752 0.7831176226 -0.54030519443 -0.31957422975 0.77837255481 
-0.54904050542 -0.31787434591 0.77293036327 -0.55948442646 -0.31612842619 0.76609077508 -0.56914399649 -0.31463685519 0.75962295061 
-0.57710381382 -0.31369647866 0.75396076851 -0.58347215936 -0.3129959719 0.74939184797 -0.58610334113 -0.31285873782 0.74739017213 
-0.58768867456 -0.3127531046 0.74619473465 -0.5866062411 -0.31272807937 0.74705586304 -0.58612774299 -0.31273355074 0.74742951323 
-0.58732767448 -0.31282377688 0.74644838622 -0.5908915954 -0.31306240453 0.74347321814 -0.60164494102 -0.31375235461 0.73443372168 
-0.61555093466 -0.31407981156 0.72250470728 -0.63999148877 -0.31319599922 0.70092038049 -0.66710371577 -0.31061862971 0.6763474763 
-0.70406633151 -0.30179715876 0.64075576455 -0.74184548868 -0.290177534 0.60326996695 -0.78295234973 -0.26715441276 0.5580650792 
-0.82295673828 -0.2416184263 0.51262321054 -0.8579865134 -0.20474380501 0.46611202867 -0.89113916 -0.16659468107 0.42049142114 
-0.91488021848 -0.12205542777 0.37933599471 -0.93692590154 -0.07755821175 0.33950835851 -0.94941853022 -0.033297866173 0.30716251788 
-0.96081305901 0.0099281084121 0.27616701577 -0.96516793832 0.046522983833 0.25382820322 -0.96905183933 0.08145622259 0.23271431073 
-0.96943698227 0.1040456555 0.22069998602 -0.96977227615 0.12469448669 0.20973810277 -0.96966734363 0.12820550062 0.2080705271 
-0.96960710022 0.12985931144 0.20720296419 -0.9700305323 0.11141239549 0.21499403306 -0.97032917228 0.091412599309 0.22326942219 
-0.96891136341 0.050053763116 0.23820637842 -0.96722237224 0.0080685353315 0.25317847 -0.9604025241 -0.045768224607 0.26881533391 
-0.95329615622 -0.10012627114 0.28445263383 -0.93432040373 -0.17607916795 0.30010799602 -0.9169371971 -0.24565769458 0.31444947714 
-0.9169371971 -0.24565769458 0.31444947714 -0.9169371971 -0.24565769458 0.31444947714 
FrenetTangent 3 128 double
-0.76029661635 0.29715612201 0.57762210338 -0.76029661635 0.29715612201 0.57762210338 -0.76838745674 0.29416551824 0.56837255758 
-0.78091197522 0.28878143972 0.55387883787 -0.79713665516 0.28033352597 0.53477683871 -0.81619193225 0.26802829938 0.51185111161 
-0.83714989812 0.25102875579 0.4859677066 -0.85907604912 0.22852299582 0.4580017273 -0.88104825448 0.19977964768 0.42876807909 
-0.90214505883 0.16419940162 0.39896472191 -0.92141649122 0.12136803236 0.3691360866 -0.93785725304 0.071128790262 0.33965345298 
-0.95040583853 0.013681039458 0.31071139543 -0.95799384734 -0.050304363571 0.28234245069 -0.95966728609 -0.11957964361 0.25443940111 
-0.95477830412 -0.192272741 0.22678091419 -0.94320870965 -0.26595479313 0.19906124198 -0.92555029312 -0.33785494299 0.17091135829 
-0.90315049595 -0.40519366437 0.1419058703 -0.87796657178 -0.46554325261 0.11155347948 -0.85225210798 -0.51708864019 0.079282297131 
-0.82816373608 -0.55872191634 0.044436994139 -0.80739944567 -0.58997158138 0.0062982765206 -0.79094466185 -0.61083571672 -0.035864593393 
-0.77893620045 -0.6216252684 -0.082706839552 -0.77064331317 -0.62286945927 -0.13469417427 -0.76454039434 -0.6153217982 -0.19198195247 
-0.75846501933 -0.60004736861 -0.2543107742 -0.74985893171 -0.57852784273 -0.32096279803 -0.73605759509 -0.55271544273 -0.39080027646 
-0.71456362363 -0.52497796099 -0.46238184248 -0.68323854128 -0.49791190519 -0.53410563598 -0.64036802223 -0.47407509938 -0.60430257012 
-0.58462943174 -0.45571069054 -0.67121992973 -0.51506303712 -0.44451893824 -0.73287992287 -0.43114114288 -0.44150686429 -0.78688563572 
-0.33301306446 -0.44690145829 -0.83028994061 -0.22192471055 -0.46012407097 -0.85967160135 -0.10063344884 -0.47986567307 -0.87155140111 
0.026467518321 -0.50430908373 -0.86311749985 0.15373423484 -0.53150323397 -0.83298865378 0.27518250955 -0.55979629654 -0.78160264382 
0.38554556526 -0.58815211889 -0.71093719986 0.4809510332 -0.61618884674 -0.62369656791 0.55893981003 -0.64395240977 -0.52240940143 
0.61795155479 -0.67152844581 -0.40888314028 0.65664375664 -0.69859038694 -0.28423660593 0.67338449843 -0.72401520931 -0.14951686847 
0.66626836382 -0.74568139518 -0.0067619714756 0.63389486566 -0.76067098419 0.13984617654 0.57681193932 -0.76611945544 0.28345893293 
0.49889869829 -0.76056715224 0.41549692632 0.4074824106 -0.74504982813 0.52807086519 0.31164815 -0.72304905162 0.61650263548 
0.21975735259 -0.69926516039 0.68024623589 0.13777506423 -0.67812413535 0.72191806234 0.068969899161 -0.66286360096 0.74555683856 
0.014526707544 -0.65531799009 0.75521341794 -0.025621386841 -0.65610266147 0.75423659561 -0.052184292547 -0.6648917535 0.74511459235 
-0.066155194628 -0.68066018449 0.72960619753 -0.068647228134 -0.70186922782 0.70899022921 -0.060856916941 -0.72664683008 0.68431047047 
-0.04404822753 -0.75297183406 0.65657685823 -0.019531756169 -0.77886776105 0.62688397754 0.011396116441 -0.80258549585 0.59642824412 
0.047535419381 -0.82272311507 0.56645128637 0.087861609925 -0.83826660457 0.53813514768 0.13158106737 -0.84855000917 0.512493224 
0.17812669153 -0.85316261699 0.49029014953 0.22710047463 -0.85184490142 0.47200173554 0.27818826318 -0.84440264732 0.45781596677 
0.33105326519 -0.83066425395 0.44766129252 0.38522560161 -0.81049249938 0.44125179242 0.44002804182 -0.78383915836 0.43814551947 
0.49454599257 -0.75083522742 0.43780214994 0.54766146919 -0.71187632708 0.43965783298 0.5981386237 -0.66769841132 0.44318057083 
0.64476611074 -0.61938334828 0.44792960419 0.6865115307 -0.56828969877 0.45359534443 0.7226456637 -0.51592240966 0.4600079477 
0.75280914925 -0.46376291891 0.46712133312 0.77700516808 -0.41311638325 0.47497139141 0.79554130511 -0.36498820494 0.48362965389 
0.80894153985 -0.32002659426 0.49314963659 0.81784721273 -0.27853828984 0.50352989755 0.82293966201 -0.24053866847 0.51469550383 
0.82488521327 -0.20584100113 0.52649203905 0.82429455082 -0.17417974458 0.53870206058 0.82171019939 -0.14531200368 0.55106875234 
0.81759996711 -0.11911310574 0.56333148485 0.81235767862 -0.095658193491 0.57526038626 0.80629792448 -0.075271645335 0.58670080654 
0.79965627634 -0.058530924467 0.59759850283 0.79258808418 -0.046233614209 0.60800212313 0.78514846071 -0.039335687612 0.61805711575 
0.77726843624 -0.038859902414 0.62796790205 0.7687205154 -0.045808746054 0.6379422607 0.75909075049 -0.061066695295 0.64811425787 
0.74775880153 -0.085289477683 0.65846980169 0.73389953449 -0.11881475592 0.66878586038 0.71652675557 -0.16157593333 0.67858870188 
0.69458813757 -0.21298860996 0.68715585653 0.66710644502 -0.27188863858 0.69357447994 0.63336247382 -0.33653691637 0.69684638241 
0.59309122541 -0.40466640024 0.69605165244 0.54662450334 -0.4736984514 0.69051533617 0.49494261822 -0.54102517192 0.67994379769 
0.43960545803 -0.6043161758 0.66449153564 0.38257676081 -0.66178448856 0.64472964318 0.32598794907 -0.71234511031 0.6215273935 
0.27190840337 -0.75563711414 0.595884529 0.22217674402 -0.79191247151 0.56878126892 0.1782971509 -0.82186835358 0.54105686888 
0.14139680584 -0.84645969284 0.51333510663 0.112227735 -0.86671696013 0.48601095308 0.091177499897 -0.88359995878 0.45927962763 
0.078273633787 -0.89789784085 0.4331889953 0.073179578349 -0.91017225666 0.40771462141 0.075178189361 -0.92074220853 0.38286032085 
0.083159496403 -0.92972281375 0.35874780522 0.09563830314 -0.93710673637 0.33568479207 0.11081987286 -0.94286624722 0.31420088421 
0.12672859463 -0.94704491682 0.2950352332 0.14139068074 -0.94981341485 0.27903969676 0.1530445157 -0.95144974307 0.26705947396 
0.1603340232 -0.95225519678 0.25981347388 0.1603340232 -0.95225519678 0.25981347388 
FrenetNormal 3 128 double
-0.64315025633 -0.21959863314 -0.73357630013 -0.64315025633 -0.21959863314 -0.73357630013 -0.63555171862 -0.24638679393 -0.73168815812 
-0.62260888182 -0.28838495718 -0.72745604455 -0.60355056536 -0.34454355994 -0.71903855971 -0.5773364828 -0.41307260472 -0.70431073317 
-0.5427859685 -0.4909901551 -0.68140447605 -0.49887391417 -0.57401508846 -0.6493315763 -0.44513019125 -0.65683857998 -0.60862319434 
-0.38195173079 -0.73397675522 -0.56159682883 -0.31056055485 -0.80097439962 -0.51185169037 -0.23274182512 -0.85492140319 -0.46361690781 
-0.15041575501 -0.89464316689 -0.42070025504 -0.065433307052 -0.92018996782 -0.38596490183 0.020348465931 -0.93220344022 -0.36136226417 
0.10486513439 -0.93151012942 -0.34827027204 0.1856779282 -0.91894124058 -0.34795215669 0.25984915015 -0.89511812489 -0.36227332451 
0.32390421706 -0.86003306049 -0.39424509261 0.37354103419 -0.8119453625 -0.4485664099 0.40287976207 -0.74543826855 -0.53104584087 
0.40340789793 -0.64923261604 -0.64479382609 0.36529251553 -0.50824316816 -0.77990400699 0.2880090115 -0.31993495157 -0.90260314428 
0.19528483493 -0.11511871731 -0.97396689583 0.12287332123 0.062163131684 -0.99047356956 0.090572802126 0.19233328898 -0.97714096908 
0.099593107467 0.27891745585 -0.95513677857 0.14447105603 0.33024029736 -0.93277513902 0.21926686272 0.35151941381 -0.91014072793 
0.31853111891 0.3443038696 -0.88317199438 0.43569888713 0.30898110104 -0.84539763363 0.56181813617 0.24737043276 -0.78941006509 
0.68512986099 0.16578829394 -0.70930340135 0.7937905372 0.075257533287 -0.6035170973 0.87965449111 -0.011580694779 -0.47547225342 
0.93972973583 -0.084900330459 -0.33120983906 0.97428102682 -0.13996101705 -0.17659953137 0.9841366719 -0.17665523525 -0.01636883842 
0.96942698338 -0.19775489051 0.14527328446 0.92978133442 -0.2075450527 0.30402585626 0.86498136625 -0.21068400342 0.45543329561 
0.77526388935 -0.21130793902 0.59524352728 0.66163062053 -0.21167654301 0.71933160859 0.52605397128 -0.21162475805 0.8237002981 
0.37239819332 -0.20802380581 0.9044587784 0.20670375668 -0.19574414321 0.95862285982 0.036008491865 -0.16988259416 0.9848062209 
-0.13280981717 -0.12757901295 0.98289630578 -0.29378218911 -0.06955209404 0.95333862377 -0.44147595771 -0.0004027561925 0.89727298887 
-0.57108343397 0.072112915145 0.81771843499 -0.67963837419 0.13881617913 0.72029282152 -0.767587797 0.19085919623 0.61186742118 
-0.83875633867 0.22065847661 0.49779276918 -0.89889690061 0.22047374675 0.3786498238 -0.95255726723 0.17831383831 0.24665528115 
-0.99431687493 0.070198102663 0.080038607045 -0.97600364292 -0.14678681904 -0.16084314954 -0.74660075282 -0.46955072488 -0.4712848742 
-0.28917406973 -0.6867493608 -0.66689854764 0.089694206785 -0.7121307088 -0.69629361827 0.32179892559 -0.66325772434 -0.67567347335 
0.47084634657 -0.59529126212 -0.6511006306 0.57905306487 -0.51995275196 -0.62797028894 0.66711975806 -0.43821271398 -0.6024291209 
0.7441971754 -0.34909186011 -0.56947821497 0.8134359512 -0.25144743235 -0.52449608393 0.87341773733 -0.14528211922 -0.46479518281 
0.91987077897 -0.032566815691 -0.39086718014 0.94795837184 0.082299447177 -0.30757393623 0.95539700079 0.19405754855 -0.22261679794 
0.94351225418 0.29829641495 -0.1442354847 0.91620406294 0.39307139017 -0.077878092453 0.87773475821 0.47846600706 -0.025533787567 
0.83140266738 0.55550550994 0.013536362301 0.77918672882 0.62538321812 0.041998477626 0.72239740994 0.68864479477 0.06253262147 
0.66169338766 0.74564445206 0.078588878597 0.59776185612 0.7962718438 0.092908095119 0.53099522899 0.8404123367 0.10840281875 
0.46181611576 0.87780281159 0.12723246124 0.39032812947 0.90815102933 0.15134615714 0.31664236301 0.9309727846 0.18173411426 
0.24108440465 0.94565412987 0.21821222812 0.16445798155 0.95168427769 0.25932722166 0.088551164414 0.94918325897 0.30200965576 
0.015718960901 0.93934124525 0.34262361162 -0.051940195698 0.92422186052 0.3783069767 -0.11324827471 0.90603034862 0.4077791506 
-0.16918271659 0.88548397029 0.43277632417 -0.2228323786 0.86068022761 0.457793924 -0.28090738771 0.82415909863 0.49178533902 
-0.35346609839 0.75864540647 0.54728316668 -0.45502744791 0.61891040965 0.64023427468 -0.58065089584 0.30030899845 0.75674238854 
-0.61880320461 -0.22764620431 0.7518376152 -0.51805489765 -0.62953885867 0.57905090315 -0.42309391969 -0.80292365544 0.41988705465 
-0.37561284683 -0.87211229719 0.3135843274 -0.36354882594 -0.90039993652 0.2389816007 -0.37470078029 -0.90969327479 0.17904600262 
-0.40181407534 -0.90715208572 0.12498216768 -0.43966715144 -0.89527578625 0.071930956461 -0.48435041339 -0.87469302458 0.017798589571 
-0.53251380983 -0.84557455849 -0.037851134473 -0.58083995243 -0.80847672974 -0.094817335576 -0.62653385941 -0.76439707053 -0.15215926385 
-0.66703474072 -0.71509625161 -0.20905024659 -0.70035325058 -0.66285839945 -0.2648094913 -0.724654151 -0.61050175258 -0.31963099276 
-0.73822930325 -0.56100841866 -0.37454912899 -0.73886157755 -0.5173835143 -0.43173819422 -0.72289823776 -0.48245294768 -0.49462843743 
-0.68371745231 -0.45850419867 -0.567718544 -0.60993804082 -0.44620555758 -0.65488639224 -0.48462024533 -0.44227470227 -0.75467629189 
-0.29307502274 -0.4360464958 -0.85086455124 -0.047815722345 -0.41154256785 -0.91013535891 0.19732792791 -0.362617541 -0.91080744827 
0.39085722984 -0.3007198548 -0.8699414893 0.52213323055 -0.23988656777 -0.81843223553 0.60511918354 -0.18677695986 -0.77391546113 
0.65647913643 -0.14290086375 -0.74068514672 0.68690769493 -0.10884349136 -0.71854778062 0.70430870245 -0.084548731484 -0.7048409492 
0.7134182313 -0.070109934131 -0.69722236366 0.7134182313 -0.070109934131 -0.69722236366 
FrenetBinormal 3 128 double
-0.091141664174 -0.92923338267 0.35807613377 -0.091141664174 -0.92923338267 0.35807613377 -0.075197934 -0.92345015873 0.37627792264 
-0.050345478935 -0.91292902054 0.40500115581 -0.017316698967 -0.89593685577 0.44384375902 0.022656463856 -0.87036305871 0.49188904306 
0.067553241825 -0.83421413999 0.54728724465 0.11451270492 -0.78631031953 0.60712677574 0.16004088887 -0.72708402006 0.66763443715 
0.20061696879 -0.65902707024 0.72486974866 0.23354612282 -0.58626769643 0.77572314432 0.25740049682 -0.51385804418 0.81834888322 
0.27222021 -0.44657186779 0.85233193309 0.27922440936 -0.38822660151 0.87824474669 0.28040085581 -0.34161009187 0.89703840787 
0.27821159854 -0.30873948867 0.90954836846 0.27546512851 -0.29123022574 0.91613531675 0.27538168796 -0.29089101049 0.91626816269 
0.28178935367 -0.3100987411 0.90798322172 0.29940239581 -0.35215651102 0.88676039443 0.33369783003 -0.42064370431 0.84362588406 
0.38911038811 -0.51606862962 0.76306374267 0.46332225635 -0.62739334965 0.62586745529 0.5398679016 -0.72423846483 0.42897703305 
0.59592132775 -0.77480946472 0.21106412419 0.62530874838 -0.77985215379 0.028628437395 0.63818065854 -0.76445208522 -0.091315149133 