# vtk DataFile Version 4.2
vtk output
ASCII
DATASET POLYDATA
POINTS 128 float
0 0 0 -0.226422 0.177887 0.173158 -0.692497 0.502965 0.507393 
-1.12977 0.716273 0.771666 -1.5328 0.835113 0.974875 -1.9642 0.944391 1.1858 
-2.41874 1.04155 1.40224 -2.87698 1.10592 1.60722 -3.3369 1.1405 1.80281 
-3.80076 1.15352 1.99548 -4.26688 1.14504 2.18618 -4.73263 1.11277 2.37442 
-5.19629 1.05522 2.56092 -5.65634 0.97086 2.74662 -6.11037 0.856575 2.9313 
-6.55556 0.708762 3.11414 -6.98841 0.524047 3.29286 -7.40529 0.299604 3.46432 
-7.80333 0.0354346 3.62359 -8.18032 -0.266909 3.76503 -8.53666 -0.60267 3.88291 
-8.87406 -0.965677 3.97162 -9.19632 -1.34858 4.0267 -9.50802 -1.74358 4.04428 
-9.81345 -2.14316 4.02166 -10.1164 -2.54011 3.95681 -10.4179 -2.92864 3.84878 
-10.7175 -3.30395 3.69734 -11.0119 -3.66381 3.50388 -11.2965 -4.00746 3.27069 
-11.566 -4.3361 3.00078 -11.8147 -4.65195 2.69763 -12.0364 -4.9582 2.36518 
-12.225 -5.25852 2.00772 -12.3746 -5.55623 1.63017 -12.4793 -5.85437 1.23794 
-12.5342 -6.15496 0.837512 -12.5352 -6.45936 0.436056 -12.4805 -6.76779 0.0413966 
-12.3697 -7.07981 -0.33835 -12.2054 -7.39458 -0.695924 -11.992 -7.71107 -1.02468 
-11.7347 -8.02876 -1.31914 -11.4393 -8.34744 -1.57444 -11.1122 -8.66753 -1.78507 
-10.7602 -8.98991 -1.94481 -10.3899 -9.31687 -2.04455 -10.0092 -9.65138 -2.07237 
-9.6428 -9.99318 -2.00446 -9.32747 -10.3389 -1.81151 -9.09961 -10.6742 -1.50274 
-8.99225 -10.9785 -1.11563 -8.99762 -11.2503 -0.688084 -9.07878 -11.5025 -0.256456 
-9.20881 -11.7471 0.1632 -9.36925 -11.9947 0.570234 -9.5462 -12.2535 0.963966 
-9.72929 -12.5289 1.34339 -9.90971 -12.8258 1.7074 -10.0799 -13.1479 2.05477 
-10.2328 -13.497 2.38373 -10.3622 -13.8733 2.69208 -10.4642 -14.2743 2.97894 
-10.5368 -14.6956 3.24471 -10.5802 -15.1323 3.49134 -10.5962 -15.5792 3.72222 
-10.5866 -16.0323 3.94104 -10.5539 -16.488 4.15175 -10.4999 -16.9438 4.35804 
-10.4262 -17.3972 4.56332 -10.3341 -17.8462 4.77068 -10.2245 -18.2891 4.98282 
-10.0975 -18.7238 5.20203 -9.95303 -19.1484 5.43024 -9.79055 -19.5605 5.66891 
-9.60899 -19.9576 5.91907 -9.40708 -20.3369 6.18111 -9.18326 -20.6952 6.45469 
-8.93624 -21.0294 6.73875 -8.6651 -21.3364 7.03139 -8.36965 -21.6135 7.33035 
-8.05069 -21.8587 7.63291 -7.70997 -22.0711 7.93661 -7.35048 -22.2513 8.23937 
-6.97549 -22.401 8.5398 -6.58849 -22.5232 8.83746 -6.19272 -22.6208 9.13244 
-5.7909 -22.697 9.42554 -5.38535 -22.7545 9.71767 -4.9778 -22.7954 10.0098 
-4.5697 -22.8215 10.3028 -4.16219 -22.8339 10.5976 -3.75623 -22.8335 10.8947 
-3.35263 -22.8212 11.1948 -2.95204 -22.7978 11.4982 -2.55497 -22.7644 11.8053 
-2.16177 -22.7223 12.1162 -1.77257 -22.6735 12.4312 -1.38736 -22.6202 12.7503 
-1.00603 -22.5654 13.0738 -0.628433 -22.5119 13.4018 -0.2545 -22.4633 13.7348 
0.115702 -22.4235 14.0731 0.481787 -22.3978 14.4173 0.842927 -22.3919 14.7677 
1.19739 -22.4132 15.1243 1.54231 -22.4702 15.4867 1.87248 -22.5738 15.8529 
2.18058 -22.7346 16.2188 2.455 -22.9611 16.5758 2.6849 -23.2569 16.9144 
2.86319 -23.6127 17.2247 2.98698 -24.0164 17.4999 3.06293 -24.4526 17.7417 
3.09935 -24.9078 17.9538 3.10463 -25.3747 18.1417 3.08659 -25.8479 18.3114 
3.05141 -26.3251 18.4677 3.00431 -26.8046 18.6148 2.94845 -27.2837 18.7546 
2.88793 -27.7616 18.8903 2.83097 -28.2445 19.0309 2.78283 -28.7328 19.1808 
2.7355 -29.2011 19.324 2.6909 -29.6448 19.4601 2.69887 -30.159 19.6647 
2.78125 -30.7448 19.9555 2.8366 -31.0372 20.1118 
LINES 1 129
128 0 1 2 3 4 5 6 7 8 9 10 11 12 13 14 15 16 17 18 19 20 21 22 23 24 25 26 27 28 29 30 31 32 33 34 35 36 37 38 39 40 41 42 43 44 45 46 47 48 49 50 51 52 53 54 55 56 57 58 59 60 61 62 63 64 65 66 67 68 69 70 71 72 73 74 75 76 77 78 79 80 81 82 83 84 85 86 87 88 89 90 91 92 93 94 95 96 97 98 99 100 101 102 103 104 105 106 107 108 109 110 111 112 113 114 115 116 117 118 119 120 121 122 123 124 125 126 127 

CELL_DATA 1
FIELD FieldData 2
Length 1 1 double
59.81612878 
Tortuosity 1 1 double
0.61262933694 
POINT_DATA 128
SCALARS MaximumInscribedSphereRadius float
LOOKUP_TABLE default
1.581 1.47007 1.35913 1.29789 1.2411 1.24 1.24 1.24 1.24 
1.21504 1.1883 1.10642 1.01954 1.07255 1.14111 1.31096 1.49417 1.62329 
1.74413 1.72213 1.67524 1.52243 1.34882 1.14823 0.941708 0.962943 1.03981 
1.22507 1.43952 1.58834 1.71776 1.72936 1.70291 1.63474 1.55189 1.49234 
1.44168 1.41351 1.3946 1.38293 1.37446 1.34591 1.30783 1.25142 1.18568 
1.12226 1.06011 1.13968 1.30148 1.37373 1.39126 1.3756 1.33947 1.35321 
1.39949 1.44915 1.50116 1.53095 1.54414 1.54086 1.52444 1.49182 1.44542 
1.43179 1.44791 1.46537 1.48412 1.45959 1.39024 1.36087 1.37579 1.46531 
1.64322 1.79893 1.92651 2.02432 2.08177 2.08563 2.0117 1.99379 2.06291 
2.17439 2.35629 2.51369 2.62741 2.66599 2.56065 2.42031 2.20774 2.03679 
1.95873 1.92229 1.98647 2.07933 2.24752 2.386 2.43947 2.47542 2.4565 
2.42282 2.33834 2.28237 2.33497 2.41098 2.58602 2.70219 2.54011 2.37696 
2.20819 2.0477 1.9362 1.82555 1.72041 1.63707 1.71725 1.80295 1.93745 
2.05243 1.95612 1.85658 1.71287 1.58116 1.66757 1.75332 1.80531 1.85332 
1.85666 1.86 
TEXTURE_COORDINATES TCoords 2 float
0 0 0.00787402 0 0.015748 0 0.023622 0 0.0314961 
0 0.0393701 0 0.0472441 0 0.0551181 0 0.0629921 0 
0.0708661 0 0.0787402 0 0.0866142 0 0.0944882 0 0.102362 
0 0.110236 0 0.11811 0 0.125984 0 0.133858 0 
0.141732 0 0.149606 0 0.15748 0 0.165354 0 0.173228 
0 0.181102 0 0.188976 0 0.19685 0 0.204724 0 
0.212598 0 0.220472 0 0.228346 0 0.23622 0 0.244094 
0 0.251969 0 0.259843 0 0.267717 0 0.275591 0 
0.283465 0 0.291339 0 0.299213 0 0.307087 0 0.314961 
0 0.322835 0 0.330709 0 0.338583 0 0.346457 0 
0.354331 0 0.362205 0 0.370079 0 0.377953 0 0.385827 
0 0.393701 0 0.401575 0 0.409449 0 0.417323 0 
0.425197 0 0.433071 0 0.440945 0 0.448819 0 0.456693 
0 0.464567 0 0.472441 0 0.480315 0 0.488189 0 
0.496063 0 0.503937 0 0.511811 0 0.519685 0 0.527559 
0 0.535433 0 0.543307 0 0.551181 0 0.559055 0 
0.566929 0 0.574803 0 0.582677 0 0.590551 0 0.598425 
0 0.606299 0 0.614173 0 0.622047 0 0.629921 0 
0.637795 0 0.645669 0 0.653543 0 0.661417 0 0.669291 
0 0.677165 0 0.685039 0 0.692913 0 0.700787 0 
0.708661 0 0.716535 0 0.724409 0 0.732283 0 0.740157 
0 0.748031 0 0.755906 0 0.76378 0 0.771654 0 
0.779528 0 0.787402 0 0.795276 0 0.80315 0 0.811024 
0 0.818898 0 0.826772 0 0.834646 0 0.84252 0 
0.850394 0 0.858268 0 0.866142 0 0.874016 0 0.88189 
0 0.889764 0 0.897638 0 0.905512 0 0.913386 0 
0.92126 0 0.929134 0 0.937008 0 0.944882 0 0.952756 
0 0.96063 0 0.968504 0 0.976378 0 0.984252 0 
0.992126 0 1 0 
FIELD FieldData 7
Curvature 1 128 double
0 0.025178605271 0.046256710347 0.064746797628 0.080014839669 0.091898023344 0.10070841549 0.10712560654 0.11201544259 
0.11622051075 0.12039489958 0.12490087006 0.12979527909 0.13487903049 0.13978129655 0.14408801176 0.14746229354 0.14976994191 
0.15114916521 0.1519987722 0.15286290545 0.15425722145 0.15643221243 0.15930543885 0.16246255339 0.16531925627 0.16736025285 
0.16831817259 0.16828548897 0.16772958758 0.1673629162 0.16795442545 0.17011096413 0.17410637665 0.17977097853 0.18665271667 
0.1940984391 0.20157599526 0.2088890183 0.2162866773 0.22467930091 0.23553879716 0.25073511963 0.27219157978 0.30107317508 
0.33677445249 0.37540412633 0.40886385456 0.42608960513 0.41789631967 0.38280071397 0.3282093172 0.26546821258 0.20424879863 
0.15019728277 0.10614424463 0.074548198835 0.059336678477 0.061257239546 0.072142103959 0.084139341381 0.093711457565 0.099673801361 
0.10194199113 0.10109345151 0.098119828231 0.094170431908 0.090437297726 0.087886902379 0.08725517252 0.088768902061 0.092302143025 
0.097421830174 0.1036052882 0.11027511578 0.11688325612 0.12291743148 0.12787640359 0.13136366986 0.13297563122 0.1325316221 
0.12996301059 0.12542339484 0.11918010907 0.11161719941 0.1032073409 0.094408254139 0.085544751179 0.076938485461 0.068777049009 
0.061037644682 0.053735175435 0.046730414004 0.039923978224 0.033226898393 0.02697095812 0.022329745369 0.021936887517 0.027831143602 
0.038953667089 0.053749520694 0.071534340215 0.092020250228 0.1150149319 0.14003214517 0.16631886254 0.19239169036 0.21595895417 
0.23433275225 0.24463988096 0.24505123058 0.23529144678 0.21677169325 0.1920979718 0.16403532653 0.13496516288 0.10651846188 
0.079797715933 0.055481998434 0.03400226512 0.015951214286 0.0025182504004 0.0086742352305 0.013994206502 0.014926384049 0.011985974105 
0.0062650289296 0 
Torsion 1 128 double
0 0 0.020626771666 0.028848511635 0.037638174358 0.046259444522 0.053649077052 0.058159443851 0.057832720169 
0.051013515789 0.037056311715 0.016412553228 -0.0092992039684 -0.038213923572 -0.068856595682 -0.10022109196 -0.13156842618 -0.16185956877 
-0.18932254243 -0.21094269741 -0.22258285865 -0.22038334982 -0.20254947879 -0.16988906436 -0.12575718638 -0.07414798939 -0.018422398147 
0.038758867407 0.09540176293 0.14896452208 0.19600015032 0.23282710856 0.25672370565 0.26753973676 0.2683128229 0.26406526287 
0.26007641424 0.26027146329 0.26711227199 0.28113075014 0.30072864395 0.32212693764 0.33937158182 0.34657538345 0.34047998447 
0.32219731173 0.29667644316 0.26966127524 0.24651625878 0.23087708691 0.22498569727 0.23143820505 0.25507235185 0.30662177506 
0.40970831148 0.61224057225 0.96341025939 1.2257801071 0.95832704474 0.59319950827 0.38551009743 0.28344671806 0.23620716336 
0.21964872795 0.22264297292 0.23849129189 0.26135311286 0.28366816742 0.29549542386 0.28862039173 0.26134140407 0.21918934301 
0.17190389218 0.12680261163 0.088248746361 0.057791808612 0.035209403834 0.019588844274 0.010127159642 0.0055664267255 0.0051038658933 
0.0082821507974 0.014517254192 0.023356023019 0.03462119239 0.048343760468 0.064040578728 0.08146284456 0.10016241433 0.12033587317 
0.14288455738 0.16960933033 0.20701460868 0.2682780466 0.38121459037 0.59843425224 0.94803552122 1.1021086753 0.78075396995 
0.4557466258 0.27102366021 0.17036726369 0.11234527148 0.076144582698 0.052491171855 0.036516776454 0.025121150388 0.016772707321 
0.010658628794 0.0061962434375 0.0028980234014 0.00038747079031 -0.0012261279218 -0.0019011123423 -0.0016112409798 -0.0002051952642 0.0029604373439 
0.010416095587 0.02564244375 0.065962414976 0.25852944538 7.718986291 0.42777418537 0.092639049964 0.036336326604 0.016953785489 
0 0 
Abscissas 1 128 double
0 0.50303662791 1.0060732558 1.5091089632 2.0121445882 2.5151832279 3.0182219272 3.5212553987 4.0242885884 
4.5273270013 5.0303657884 5.5334034839 6.0364410801 6.5394743209 7.0425070779 7.5455438119 8.0485810699 8.5516198025 
9.0546587605 9.5576951232 10.060731034 10.563766477 11.066801829 11.569840194 12.072879222 12.575916909 13.078954268 
13.581993159 14.085032463 14.58805395 15.091070173 15.594101843 16.097138502 16.600182687 17.103229519 17.60626856 
18.10930463 18.612343245 19.115382907 19.618417619 20.12145014 20.624489406 21.127531875 21.630561774 22.133585276 
22.636617829 23.139655318 23.642701989 24.145753988 24.648780247 25.151790776 25.654819683 26.157859927 26.660905113 
27.163953523 27.66698456 28.170003501 28.673036693 29.176080519 29.679126191 30.182173338 30.68520718 31.188229691 
31.691257675 32.194290628 32.697331707 33.200380663 33.70340981 34.206418442 34.709445504 35.212492985 35.715547159 
36.218609264 36.721649047 37.224660538 37.727682404 38.230718346 38.733754011 39.236789276 39.739828536 40.242874002 
40.745917354 41.248957191 41.751997094 42.255037115 42.758074864 43.26110826 43.764142288 44.267177623 44.770215782 
45.273260243 45.776302139 46.279337837 46.782374478 47.285413596 47.788449879 48.29147805 48.794506162 49.297534088 
49.800564282 50.303602286 50.806643542 51.309697179 51.812744274 52.315763708 52.818786303 53.321823836 53.824862081 
54.327904103 54.830944965 55.333978963 55.837016831 56.340080151 56.843136243 57.346138111 57.849142657 58.352170932 
58.855202364 59.358267955 59.861331168 60.364361857 60.86739168 61.370405743 61.873420757 62.376483867 62.879544869 
63.382582176 63.885619483 
ParallelTransportNormals 3 128 double
0.58916984827 0 0.80800921398 0.54451433452 0.023993794686 0.83623275334 0.49985882078 0.047987589372 0.8644562927 
0.47211261903 0.057310525745 0.87917615863 0.44588154919 0.065318903289 0.89268604947 0.42549670193 0.068785053365 0.90205159027 
0.40522726459 0.072161535616 0.91133531772 0.39271307549 0.072935310805 0.91666887084 0.38061700021 0.073568764527 0.92178945561 
0.37362700684 0.073301355437 0.9246501729 0.36700290119 0.072969393007 0.92734895434 0.36391848669 0.072529656894 0.92859766585 
0.36115566534 0.07208012917 0.9297146335 0.35883263256 0.071408904545 0.93066285987 0.35655845577 0.070713051669 0.93159234081 
0.34933721792 0.067156700478 0.93454033378 0.34146402317 0.063223373627 0.93775433982 0.32332688886 0.049929247138 0.94462114106 
0.30362085504 0.035204271034 0.95204629211 0.27286720984 0.0047999966949 0.96088050075 0.24018948669 -0.028335021075 0.96996011416 
0.19891397391 -0.077575583455 0.97461334534 0.15594946861 -0.12997999907 0.97839703598 0.10701288015 -0.19275141063 0.9719541731 
0.056763236048 -0.25780216798 0.96326284287 0.004185241327 -0.32453598337 0.94176644472 -0.048961468453 -0.39168089682 0.91714232394 
-0.098184225884 -0.45239535358 0.88245992743 -0.14635000636 -0.51137766787 0.84506817956 -0.18558866423 -0.56096773277 0.80357250291 
-0.22218999116 -0.60778305478 0.76086440666 -0.24793167766 -0.64560883199 0.72010593663 -0.27016574393 -0.68053102234 0.67997718803 
-0.28278008543 -0.70787100554 0.6460228141 -0.29201020998 -0.73254357 0.61424058375 -0.29495094249 -0.75024816207 0.59123453666 
-0.29549314065 -0.76529543513 0.57157539127 -0.29451129074 -0.7732685912 0.5614779946 -0.29290203232 -0.77832952864 0.55531690585 
-0.29479470702 -0.77614746652 0.55733703168 -0.29823734475 -0.7707596374 0.56297818045 -0.30974549238 -0.75742073899 0.57421056151 
-0.32508382665 -0.74030600001 0.58809813284 -0.35517815691 -0.71115154679 0.60452200847 -0.3927832642 -0.67586889936 0.62223685872 
-0.46063076569 -0.61372462254 0.63215751399 -0.5449636036 -0.53693788739 0.63782950014 -0.66500409871 -0.40864944483 0.58802688524 
-0.80575821055 -0.25048543183 0.50604406826 -0.89857277476 -0.092511061758 0.3608242696 -0.9620871443 0.06534740036 0.17695463038 
-0.97676981963 0.16957021905 0.036030097699 -0.961331268 0.24070855412 -0.078404276878 -0.94659303969 0.2834080303 -0.14720574017 
-0.93231171597 0.30755344027 -0.18623540208 -0.92667939387 0.31710525778 -0.20176355467 -0.9270686758 0.31649673086 -0.20092949696 
-0.93364790691 0.30383680789 -0.18719581568 -0.94484582367 0.28218462858 -0.16383696557 -0.95761702418 0.24977164223 -0.13464273357 
-0.97164382318 0.20877072444 -0.10079142897 -0.98284292651 0.16288063082 -0.067914789029 -0.99163392351 0.1128268447 -0.035868187533 
-0.99678717189 0.064242472181 -0.0076090157406 -0.99863684708 0.016992528143 0.017210651971 -0.99811950708 -0.026710226486 0.039019599774 
-0.99530770519 -0.066974519467 0.057910111667 -0.99113849741 -0.10433794344 0.075259608484 -0.98556353255 -0.13869716863 0.091013198822 
-0.97895850131 -0.17146916113 0.10642227327 -0.97121220449 -0.20248257374 0.12144964017 -0.96211771673 -0.23347199013 0.1373047428 
-0.9514256201 -0.26443297094 0.15414071388 -0.93851722364 -0.2965936341 0.1730233828 -0.92279990981 -0.33027476329 0.19450001715 
-0.90366159742 -0.36543028903 0.21905305659 -0.87988202273 -0.40258612578 0.24777984902 -0.85195686892 -0.43986846765 0.27955178507 
-0.81801361799 -0.47733445578 0.31574432666 -0.78080353745 -0.51256347196 0.35332793244 -0.73851867406 -0.54431751449 0.39307245552 
-0.69600413206 -0.57207168639 0.43140085904 -0.6531077069 -0.59317533342 0.4673747018 -0.61295055853 -0.61063049359 0.50017106502 
-0.57767577352 -0.62158275538 0.52730403206 -0.54601232718 -0.63035293815 0.55133843084 -0.52126676992 -0.63494312505 0.56943720478 
-0.49932155062 -0.63854089523 0.58542585705 -0.48315790539 -0.64008972315 0.59705795489 -0.46878156047 -0.64124010961 0.60742717327 
-0.45839279921 -0.64150154714 0.61497882513 -0.4491943575 -0.64162086126 0.62170381371 -0.44287271822 -0.64139668693 0.62643089598 
-0.43755828101 -0.64116987216 0.63042717711 -0.43488871548 -0.64093612366 0.63250440415 -0.43338467638 -0.64082233754 0.63365754871 
-0.43521678756 -0.64105192633 0.63216564123 -0.43843096305 -0.64147944261 0.62947571115 -0.44597499016 -0.64252704339 0.62303251132 
-0.45523102975 -0.64373878325 0.61497687673 -0.47038455884 -0.64551594451 0.60136677505 -0.48785374355 -0.64716750469 0.58538637468 
-0.51413751147 -0.64834096217 0.56038339124 -0.54350936498 -0.64841230887 0.53184923392 -0.58593961107 -0.64382322929 0.48838302456 
-0.63176240558 -0.63568009223 0.44017366537 -0.69361947986 -0.61073933145 0.36954664791 -0.75632547685 -0.57921936911 0.29560299026 
-0.8235300396 -0.51283525405 0.2040839705 -0.8869871413 -0.44225183111 0.11467374471 -0.92826427659 -0.34681411174 0.03774476393 
-0.9656634274 -0.25341755972 -0.034641809758 -0.97756232336 -0.17344300246 -0.077159120403 -0.9880579475 -0.096959885949 -0.11699862605 
-0.98802401442 -0.046675061694 -0.13674501747 -0.98777751603 0.0012284640164 -0.15536700067 -0.98564835611 0.02804115847 -0.16403025615 
-0.98361760978 0.053299912495 -0.17217050504 -0.98265138077 0.061750047802 -0.1746535111 -0.98183881847 0.068835391501 -0.17673321636 
-0.98312827113 0.057251680995 -0.17329614932 -0.98445258054 0.04486875331 -0.16957793044 -0.98641038879 0.017960568423 -0.1607499581 
-0.98823906342 -0.010224506229 -0.15132761958 -0.98353251393 -0.10303071075 -0.1118254616 -0.97921070229 -0.18825045284 -0.075552415703 
-0.97921070229 -0.18825045284 -0.075552415703 -0.97921070229 -0.18825045284 -0.075552415703 
FrenetTangent 3 128 double
-0.83082516873 0.30694243485 0.46423687993 -0.83082516873 0.30694243485 0.46423687993 -0.83812417941 0.29128130279 0.46119742251 
-0.84884518535 0.26672172246 0.45642236369 -0.86167751151 0.23430281246 0.45012671352 -0.87519757821 0.19526684247 0.44260598655 
-0.88808419099 0.1509060356 0.4342048343 -0.89926122662 0.10240294019 0.42525625702 -0.90794813448 0.050706825176 0.41600360933 
-0.91363266715 -0.0035199631872 0.40652547198 -0.91600110269 -0.059876440988 0.39668223012 -0.9148640403 -0.11813030457 0.38609457248 
-0.91010836735 -0.1780849569 0.37415038128 -0.90168414839 -0.23944155865 0.36004643662 -0.88962651557 -0.30168456967 0.34285723446 
-0.87409990227 -0.3640166602 0.32162281005 -0.85544050678 -0.42536021546 0.2954491944 -0.83417260383 -0.48442581766 0.26360518621 
-0.81097683501 -0.53983449627 0.22559984423 -0.78660734992 -0.59025983084 0.18122419584 -0.76176901902 -0.63455640555 0.13056082812 
-0.73697850236 -0.67185628413 0.07397175497 -0.71244925497 -0.70161966681 0.012078999969 -0.68802685626 -0.72365416891 -0.0542557729 
-0.66317991617 -0.73812540453 -0.12394872319 -0.63705977995 -0.74555312885 -0.19571757413 -0.60860433471 -0.74679806419 -0.26812947448 
-0.57666360973 -0.743022024 -0.33967242022 -0.5401273815 -0.73560425023 -0.4088383529 -0.49801983523 -0.72602634006 -0.47419615905 
-0.44956605844 -0.71573195363 -0.53443253049 -0.39423763361 -0.70599132174 -0.58834763692 -0.33178447788 -0.69780170793 -0.63481638027 
-0.26227324146 -0.69183433599 -0.67273917558 -0.18614529204 -0.68843363176 -0.70100575241 -0.10427030264 -0.68766429933 -0.71850227237 
-0.017981380649 -0.68939910108 -0.72415851123 0.070930335284 -0.69342977695 -0.71702442914 0.16029854682 -0.69957351617 -0.69634852722 
0.24769585964 -0.70775888744 -0.66160722363 0.33057074185 -0.71805600892 -0.61246922591 0.40634304039 -0.73063367139 -0.54868913946 
0.47238024388 -0.7456328228 -0.46998787086 0.52586863687 -0.76294082583 -0.37600993743 0.56359345998 -0.78188293909 -0.26649855803 
0.58180229135 -0.80086658952 -0.14184075427 0.57644571874 -0.8171252908 -0.0040733868801 0.54417130953 -0.82689388585 0.14185939316 
0.48420227658 -0.82639417383 0.28743838438 0.40024180082 -0.81361042436 0.42171622952 0.30071175682 -0.78980842205 0.5345793634 
0.19645176763 -0.75941646385 0.62023651733 0.097324602245 -0.72823908766 0.67837729399 0.010050839966 -0.70142558097 0.71267182838 
-0.061985850033 -0.68240300534 0.72834325197 -0.11779600344 -0.67280504187 0.73038173389 -0.15772947923 -0.67284986274 0.72276861691 
-0.18273776137 -0.68176452662 0.70838128209 -0.19402058276 -0.69810077028 0.68921065575 -0.19291358045 -0.71995988034 0.66666492422 
-0.1808803171 -0.7451922487 0.64184953328 -0.15953889109 -0.77160348891 0.61577219662 -0.13064295545 -0.79716536329 0.58945720944 
-0.096001554077 -0.820196164 0.56396981672 -0.057351468197 -0.83947045384 0.54037039725 -0.016216185449 -0.85423712752 0.51963060465 
0.026189164287 -0.86415255527 0.50254799661 0.069004635312 -0.8691628184 0.48968801845 0.11171384641 -0.8693722045 0.48136471263 
0.15410093364 -0.86493793825 0.47763507537 0.19617681959 -0.8559900024 0.47832600937 0.23808998154 -0.84259238881 0.4830644129 
0.28004657497 -0.82473906545 0.49130376528 0.32223423415 -0.80236708588 0.50236655724 0.3647560165 -0.77539728944 0.51547268789 
0.40757322336 -0.74378722255 0.52977791118 0.45047332178 -0.70758660835 0.54442169138 0.49305952915 -0.66699560051 0.55857780981 
0.53477603745 -0.62240540242 0.57151212131 0.57494586921 -0.57442419374 0.58264405354 0.61284766729 -0.52386957057 0.59158973092 
0.64780361428 -0.47171518625 0.59819333028 0.67925160276 -0.41901330435 0.60253224886 0.70680162601 -0.36680432856 0.60488515111 
0.73025796078 -0.3160392255 0.60567525843 0.74961576047 -0.26750484416 0.60540678061 0.76502908903 -0.22178103671 0.60460207136 
0.77676385155 -0.17925976202 0.60374154789 0.78515625012 -0.14016842338 0.60322672022 0.79057975502 -0.10459899761 0.60335951194 
0.79340829835 -0.072589778722 0.60434592423 0.79400376747 -0.04416968636 0.60630607457 0.79271197857 -0.019392559271 0.60928782007 
0.78985168915 0.0016173834478 0.61329576325 0.78571032649 0.018630430687 0.61831398974 0.78054116633 0.031300135298 0.62432026172 
0.77454869906 0.039169252124 0.63130031085 0.76787227517 0.041655617186 0.63924719677 0.76056183751 0.03807174484 0.6481483114 
0.75253958444 0.027641254036 0.65796666703 0.74356687132 0.0095209079646 0.66859379311 0.73320007186 -0.017150474297 0.67979667244 
0.72074712832 -0.053186904396 0.69115463554 0.70524406619 -0.09925665404 0.70198213918 0.68546002769 -0.15570108247 0.71126768756 
0.65996733115 -0.22232057211 0.71764662963 0.62731252955 -0.29811857053 0.71944722404 0.58631999473 -0.38101490304 0.71488216332 
0.53648334747 -0.4677801684 0.70240111898 0.47836612495 -0.55426191 0.68114578882 0.41380027096 -0.63600050139 0.65136218649 
0.34569605667 -0.70910680408 0.61454192438 0.277515594 -0.77100089611 0.57318645595 0.21260610492 -0.82074660728 0.53025809828 
0.15367611552 -0.85886864971 0.48859829519 0.10256465538 -0.88685336381 0.45052369812 0.060262373828 -0.906602305 0.41766099516 
0.027067967405 -0.9200153039 0.39094649982 0.0027596822383 -0.9287488521 0.37069927687 -0.01327922683 -0.93409990296 0.35676467513 
-0.021992887149 -0.9370210825 0.34857969514 -0.024620694588 -0.93819041632 0.34524276113 -0.022661147149 -0.9381118668 0.34559021655 
-0.017801613217 -0.93721351755 0.34830148591 -0.01179465085 -0.9359066819 0.35205052051 -0.0062754776154 -0.93460896431 0.35562157164 
-0.0025539041631 -0.93369433385 0.35806196184 -0.0025539041631 -0.93369433385 0.35806196184 
FrenetNormal 3 128 double
-0.42503898906 -0.88843844377 -0.1732598898 -0.42503898906 -0.88843844377 -0.1732598898 -0.40778264397 -0.89613714732 -0.17507577919 
-0.38056932768 -0.90757490367 -0.17741133294 -0.34428636081 -0.92157212496 -0.17936476873 -0.30002560252 -0.93680074386 -0.17996945336 
-0.24912054362 -0.95183904267 -0.17872154766 -0.19303495324 -0.96532434375 -0.17574532195 -0.13343620824 -0.9759702558 -0.17226966689 
-0.0720818049 -0.98271643633 -0.17050694759 -0.010745286497 -0.98478253067 -0.17345865819 0.04904168068 -0.98167408203 -0.18414915213 
0.10598585336 -0.97294603759 -0.20528761976 0.15920068288 -0.95802461996 -0.23841973516 0.20783189617 -0.93594408684 -0.28427903414 
0.25099880043 -0.90535631031 -0.34253401811 0.28753247046 -0.86454520389 -0.41217310546 0.31614937445 -0.81167264745 -0.49115892175 
0.33561603189 -0.74506666982 -0.57640050023 0.34531897399 -0.66385635923 -0.66336229959 0.34588824636 -0.56876857592 -0.74623295831 
0.33992410892 -0.46299933351 -0.81858610869 0.33183234947 -0.35202149416 -0.87519606917 0.3271914569 -0.24260984153 -0.91328320653 
0.33147167387 -0.1411691593 -0.93284393008 0.34886910959 -0.052467390935 -0.93570161764 0.38199759968 0.020419888594 -0.92393769378 
0.43176433838 0.075790019316 -0.89879665613 0.49740706965 0.11283041491 -0.86014853632 0.57648059139 0.13131207879 -0.80649071025 
0.66426284837 0.13212702953 -0.73572910527 0.75399956099 0.1175351658 -0.64627404932 0.8377085907 0.091495166599 -0.53839850628 
0.90801226353 0.059082945597 -0.41475647652 0.9597309095 0.025380035588 -0.27977211289 0.99040024743 -0.0058764567303 -0.13810437051 
0.99943454775 -0.032974956771 0.0065754837446 0.98681765134 -0.056046474508 0.15182132821 0.95215290485 -0.076384553822 0.29592270227 
0.89422212216 -0.095788912471 0.43725425153 0.81131288602 -0.1153427443 0.57312080081 0.70195287109 -0.13480351892 0.69934982523 
0.56648891769 -0.15166755347 0.80999213537 0.40845214346 -0.16124986548 0.89842380166 0.23455972268 -0.1578608207 0.95919846632 
0.053309963441 -0.13646999444 0.98920876887 -0.12720137767 -0.09465690108 0.98734992814 -0.29982526077 -0.033750392893 0.95339693936 
-0.45774881261 0.040713098829 0.88814889976 -0.59504456943 0.11924294004 0.79479750984 -0.7079854789 0.19069365908 0.67999447796 
-0.79704313646 0.24473823106 0.55210998622 -0.86662492918 0.2731464846 0.41755506232 -0.92271843534 0.26814550934 0.27692720147 
-0.96848586395 0.21750170979 0.12135953847 -0.99279254698 0.096135612135 -0.071560483114 -0.93294398693 -0.13834021225 -0.33238156224 
-0.63830061023 -0.46574597302 -0.61290539205 -0.16279089424 -0.66990833139 -0.72437694074 0.20058715351 -0.69401560452 -0.69145291563 
0.42166642593 -0.64834963876 -0.63390864575 0.56433080342 -0.58307757739 -0.58442388988 0.66734398208 -0.51040213329 -0.54234829392 
0.74925667083 -0.43254384032 -0.5015179632 0.81878596968 -0.34924325512 -0.45565193361 0.87941530702 -0.25947968813 -0.39912279969 
0.93062955436 -0.16249221317 -0.32790991631 0.96890733466 -0.058520358582 -0.24040371143 0.98896408893 0.049827332866 -0.1395251508 
0.98700045684 0.15708458398 -0.033978400126 0.96414694918 0.25728551396 0.06499865153 0.92667740134 0.34600707944 0.14679269334 
0.8825531473 0.42255471626 0.20627034194 0.83797475816 0.48864560663 0.24294809284 0.7960738315 0.54684673121 0.2592780503 
0.75742331225 0.59941992704 0.25885454822 0.72113676116 0.64788652629 0.2453667067 0.68585345654 0.69301390183 0.22211881511 
0.65023814067 0.73505158955 0.19206644976 0.61315037962 0.77399822147 0.1580296337 0.57410913889 0.80960946618 0.12219332598 
0.53272279803 0.84181401144 0.08692290033 0.48903358899 0.87058433273 0.054120868896 0.443089651 0.8961100342 0.025658678495 
0.39514410278 0.91861454566 0.002907668435 0.34509016264 0.93848478951 -0.012612672306 0.29280899726 0.95596519444 -0.01983527533 
0.23799108395 0.97110310706 -0.017860555017 0.18028781864 0.98359492763 -0.0061090751612 0.11929734424 0.99273306391 0.015786306518 
0.054306690399 0.99734582809 0.048498273881 -0.015429810063 0.99557132395 0.092734351193 -0.091658339401 0.98433934017 0.15058157993 
-0.17833142675 0.95739394722 0.22714473811 -0.28313698452 0.89952920888 0.33268701563 -0.41637821397 0.77096533664 0.48191454909 
-0.56930429457 0.47808981561 0.66882191082 -0.63836304591 -0.03361849857 0.76900092208 -0.55079241948 -0.49072044113 0.67514528754 
-0.43635788661 -0.72737782054 0.52963506396 -0.36057804821 -0.83634883909 0.41292140959 -0.32142206524 -0.88969950388 0.32422623086 
-0.3089163818 -0.91721775427 0.25155965557 -0.31614425376 -0.93028413115 0.186075915 -0.33882439089 -0.9328642633 0.12232047413 
-0.37355954039 -0.9258711466 0.056708814896 -0.41740331093 -0.90863449443 -0.012563103294 -0.46736533575 -0.87990528268 -0.085652416457 
-0.51997253801 -0.83878427713 -0.1614605096 -0.57154706993 -0.7853894577 -0.23769170493 -0.61864169316 -0.72135674307 -0.31133086051 
-0.65870425481 -0.64981688769 -0.37927129756 -0.69043594674 -0.5749204025 -0.43904980838 -0.7136362458 -0.50111104036 -0.48950080072 
-0.72923670344 -0.43224655842 -0.53044956696 -0.73846027719 -0.37132835879 -0.56284249038 -0.74281194364 -0.32023477281 -0.58794566642 
-0.74274602834 -0.28025523504 -0.60809977851 -0.73738159666 -0.25228839562 -0.62659312663 -0.7232637372 -0.23739651838 -0.64848474116 
-0.67492253235 -0.24330772504 -0.69662107796 0.054079311577 -0.34609170514 -0.93664078477 0.8915308027 0.13746035841 0.43159874617 
0.84228219283 0.17364738556 0.51030117884 0.82653720014 0.18902183264 0.53019525042 0.8200856592 0.19868685437 0.53664051792 
0.81725780121 0.204391668 0.53880769521 0.81725780121 0.204391668 0.53880769521 
FrenetBinormal 3 128 double
0.35926507871 -0.34126745131 0.86859952216 0.35926507871 -0.34126745131 0.86859952216 0.36229984151 -0.33480354811 0.86985367103 
0.36691802645 -0.32429510788 0.87189669392 0.37279856211 -0.30952707568 0.87476523794 0.37949155053 -0.29030195752 0.87847079435 
0.38632295357 -0.26688912543 0.88290699979 0.39251337954 -0.24013027548 0.88784610022 0.39727190113 -0.21192186693 0.89289649954 
0.40009944128 -0.18508380705 0.89758811348 0.40103181756 -0.16315078638 0.90141849449 0.40077263045 -0.1495367106 0.90389162562 
0.40058676785 -0.14717933301 0.90436081591 0.40202094361 -0.15765965728 0.90195487324 0.4066577993 -0.18164549744 0.8953403529 
0.4158713299 -0.21868201224 0.88273960741 0.43075122495 -0.26763833345 0.86187186093 0.45189118164 -0.32637270193 0.83022600501 
0.47924779835 -0.39173252885 0.78540892127 0.51186295359 -0.45922550715 0.72602221063 0.54778580001 -0.52329769273 0.65275588246 
0.58422109447 -0.57813558154 0.56960070411 0.61830684206 -0.61952458449 0.48361755372 0.64773821533 -0.64611539884 0.40369554838 