# vtk DataFile Version 2.0
Vessel Segment
ASCII
DATASET POLYDATA
POINTS 64 float
-0.7849914303794737 11.222047008833389 -8.9729955359446
-1.089868048791689 10.242957363239857 -9.095124887425927
-1.3044872570107604 9.278300156218625 -9.234500445329484
-1.4857980621845546 8.284469612876865 -9.29908157322606
-1.643843512749808 7.2864120435789 -9.217711313308522
-1.7656462828349397 6.317236031287951 -8.947543036374455
-1.795849059688089 5.410805641714914 -8.495609104488063
-1.6189105786375848 4.5887652504726715 -7.932050299650138
-1.1044649055487874 3.8905907807276665 -7.415013103980776
-0.2946622780619496 3.368730910217391 -7.10787400325742
0.6483364437136514 3.0141313725029044 -7.000112348095623
1.6413941955004792 2.8099998217454787 -7.00553840453803
2.6533527354675037 2.7702129263637527 -7.05156623365065
3.6573747496711735 2.908538253074661 -7.071532850672853
4.629861094507564 3.1881355865194836 -7.0062090693752195
5.56626901541321 3.521035272851256 -6.8055479314565765
6.449420175004771 3.8085852528736703 -6.4021764517121875
7.157462144888576 3.917422511239383 -5.69382144663162
7.303269263818436 3.678311361902073 -4.741400272389944
6.757791411985906 3.226319472831031 -4.030751298600356
5.889887494318666 2.815590986766648 -3.7172584857613185
4.916756198750301 2.536494493408472 -3.706822899267688
3.925488851646859 2.4070666024572795 -3.8748680763143746
2.9352110913386125 2.4122244900577248 -4.093973678083291
1.9359464682524457 2.5085531290822822 -4.236556685560357
0.9311887091479605 2.6054892236192146 -4.160609465394942
0.013456522339987821 2.546509755105302 -3.746087139188997
-0.6403107200102223 2.2199676222405618 -3.0504498229432397
-0.9436104418691856 1.6879100500083937 -2.2464660786761477
-0.9011664638008771 1.0775052918800978 -1.4408237408772904
-0.555935872101777 0.49578596123050467 -0.6874203590541929
0.0 0.0 0.0
0.6596814019381787 -0.4046657761618054 0.6557390769328553
1.338014331251259 -0.7352887642823615 1.333637562682634
1.9742891058455228 -1.0053130915767514 2.0759713703357714
2.52942206087501 -1.2123214908150983 2.8990049025111233
2.9817984692944246 -1.3316737658331024 3.7983832632684944
3.314533832552687 -1.307680835587823 4.755178888405335
3.495552882890263 -1.0558103000073753 5.718244609235078
3.4855714276468017 -0.5451357755951936 6.591573763057889
3.286703045560041 0.1253714462615452 7.32455290884755
2.9317657031951345 0.8422394068847866 7.9475328048058556
2.4498802199168423 1.5498596017147375 8.491092816391673
1.8661161271468265 2.2375852820991073 8.954595277573882
1.2114843174598213 2.922889997869138 9.315702724440023
0.5270780437419091 3.6299908186716054 9.5613885176478
-0.14800593435085732 4.36931598364285 9.725083587023612
-0.7961450596474633 5.133376980135706 9.884551701730684
-1.4169493053405768 5.895325579058407 10.134260922125378
-2.007531444807538 6.5935256844476156 10.569828003736987
-2.5378180234853005 7.129735830317006 11.244268851936333
-2.96042959990784 7.441855077258864 12.109657640782958
-3.2553305210077794 7.559465156857704 13.072021677837597
-3.431927781068056 7.547209383844276 14.070529471384257
-3.510397283983598 7.454350145230432 15.077476484335964
-3.5124865167623502 7.303352558465467 16.080554417165803
-3.454051210401891 7.096182566307631 17.07190548878645
-3.339626406661396 6.825742317376464 18.04284655716561
-3.160752052743149 6.484032197195878 18.980925203496877
-2.902186160708581 6.063993263954793 19.867075011198637
-2.552764105387006 5.559392303085895 20.67408639923867
-2.114376817189935 4.970257465532616 21.370486625072445
-1.6092139959650815 4.314179247244902 21.926945335868357
-1.03119026069685 3.5693322596202397 22.34787482018609
LINES 1 65
64 0 1 2 3 4 5 6 7 8 9 10 11 12 13 14 15 16 17 18 19 20 21 22 23 24 25 26 27 28 29 30 31 32 33 34 35 36 37 38 39 40 41 42 43 44 45 46 47 48 49 50 51 52 53 54 55 56 57 58 59 60 61 62 63
POINT_DATA 64
SCALARS NodeIdx int
LOOKUP_TABLE default
0
1
2
3
4
5
6
7
8
9
10
11
12
13
14
15
16
17
18
19
20
21
22
23
24
25
26
27
28
29
30
31
32
33
34
35
36
37
38
39
40
41
42
43
44
45
46
47
48
49
50
51
52
53
54
55
56
57
58
59
60
61
62
63
