# vtk DataFile Version 2.0
Vessel Segment
ASCII
DATASET POLYDATA
POINTS 64 float
3.0969460487533955 12.480044378505976 -7.13889199746576
2.454486527952158 11.714941717237316 -7.44189868277832
1.8315578027536141 11.050845512647852 -7.815898300854492
1.1828341274335232 10.376571682716621 -8.208561214930794
0.5319444023265445 9.67712236932912 -8.5512012426738
-0.1050654514698185 8.920235479676732 -8.77343406038478
-0.68700363240904 8.09130603572613 -8.791823812055197
-1.146597420183153 7.221011742604027 -8.553746868952773
-1.4361166376521395 6.363514718845645 -8.098294132883225
-1.5414117631258484 5.546257318628471 -7.508092103730388
-1.445821995058823 4.779081316496674 -6.852751919082261
-1.1188341259413432 4.082153583378388 -6.194242110676652
-0.5487258141760546 3.4948031667296466 -5.597733615262233
0.21703369825769475 3.0512815721049256 -5.104131854569048
1.1036838061624161 2.7554445511777073 -4.711520193762826
2.052496611747975 2.5911343839286127 -4.393203351805212
3.0265343487344762 2.534794416854272 -4.115600156885771
4.003777472508543 2.5606165788174735 -3.844418349841547
4.969139310228406 2.64156116601966 -3.5431285693587977
5.904400338378405 2.74906208268644 -3.165573993942523
6.766392780510852 2.8451827484598753 -2.64153281618709
7.40914518156975 2.8509120272187727 -1.86357917151433
7.446439906370822 2.6150420418252263 -0.8960136440284501
6.877532283981046 2.1676639525270205 -0.1923648753151886
6.082742325091265 1.64643360009845 0.15502573139158723
5.222764797423445 1.1137352133224534 0.20921188844013056
4.358105600437131 0.6168846561040604 0.027931898987991907
3.4989069604171426 0.20017126565166798 -0.31339553713259216
2.613971910662159 -0.1005410070332989 -0.7071551571792962
1.6447431467623308 -0.2420024733382565 -0.9618773186812779
0.6695041430741843 -0.18245609917553132 -0.732845553396435
0.0 0.0 0.0
-0.31562115282130215 0.194959273948954 0.9418147348371644
-0.3573664273390265 0.349311992955859 1.9423958566303927
-0.20271057072471996 0.43102447041645753 2.9411230685102487
0.07324937317915486 0.42280100223965217 3.917031659160365
0.3957134695185472 0.33451480105211245 4.874860390113974
0.6945117305841875 0.2118992757439207 5.836669648702081
0.9154102898130638 0.12880242293610472 6.82302278144515
1.0230620215476187 0.17957362163282078 7.829529534918954
1.0088139286582238 0.44645307157258024 8.806563301130064
0.9039450324053188 0.9370059729638455 9.686916981136912
0.7549548207730392 1.5954922984340525 10.4433157532104
0.5914975499655604 2.3638190902637835 11.08481090549321
0.4219627283260945 3.2038829617756663 11.62744355185455
0.2387691590041659 4.094055460742812 12.07800099945799
0.028158078364156264 5.020334607007507 12.433711910118836
-0.21847097478147653 5.969240627198103 12.694033011931705
-0.49573971963415 6.927926041760093 12.876205135101438
-0.7891227872670846 7.888970013526053 13.016846791271153
-1.083589883571426 8.8489460627882 13.16233704675568
-1.3703938813005 9.801192606875194 13.36237121361634
-1.6461721323803526 10.726799989412742 13.67174971610449
-1.909038932669431 11.57846104756562 14.153984204262722
-2.1583481356101197 12.261571175812891 14.858159602231613
-2.386840253682855 12.660873512334163 15.759144601919823
-2.5829554761964277 12.736871047910856 16.749484303135382
-2.7400517664262556 12.549562667683904 17.7331006207446
-2.856360422971622 12.175855042543752 18.668490159592128
-2.9306201983878952 11.673026594427217 19.54607572346755
-2.9610530012218192 11.082546757780129 20.37111508054088
-2.945521099071227 10.437978433962233 21.154595139804485
-2.88418255530015 9.78922815607464 21.891906040241498
-2.748761069093625 9.12457203333116 22.685981262472513
LINES 1 65
64 0 1 2 3 4 5 6 7 8 9 10 11 12 13 14 15 16 17 18 19 20 21 22 23 24 25 26 27 28 29 30 31 32 33 34 35 36 37 38 39 40 41 42 43 44 45 46 47 48 49 50 51 52 53 54 55 56 57 58 59 60 61 62 63
POINT_DATA 64
SCALARS NodeIdx int
LOOKUP_TABLE default
0
1
2
3
4
5
6
7
8
9
10
11
12
13
14
15
16
17
18
19
20
21
22
23
24
25
26
27
28
29
30
31
32
33
34
35
36
37
38
39
40
41
42
43
44
45
46
47
48
49
50
51
52
53
54
55
56
57
58
59
60
61
62
63
