# vtk DataFile Version 2.0
Vessel Segment
ASCII
DATASET POLYDATA
POINTS 64 float
3.057709217839754 11.520215200969933 -9.808296353903376
2.472671278656287 10.663669059122421 -9.929722817066574
1.7986027728561416 9.954727588129472 -10.0304003313483
1.0583759429126083 9.263688006061127 -10.101498725260004
0.32996816704483495 8.556967858280236 -10.108093531076383
-0.2781578450681579 7.75630405676775 -9.987221208502055
-0.6112787106281065 6.850510304827274 -9.684571621635625
-0.7015269223328923 5.930666036996829 -9.267110460082977
-0.6957124090339915 5.016729732839157 -8.826694231471539
-0.6250867106324688 4.091282024712615 -8.417380301738888
-0.42091831066162283 3.1592665742282913 -8.074691259717326
0.004077206887065175 2.2773136273699186 -7.81518587271031
0.6650442749889781 1.5354094842285826 -7.618383797808211
1.4879256908650056 0.9753132019811981 -7.427051261005739
2.3872101955743625 0.5730619356684399 -7.18661503943478
3.2996153717475245 0.2765626140948523 -6.857550703806522
4.172418244627773 0.02505121556000953 -6.406551672759366
4.931841536930375 -0.2570428904339247 -5.7982184019961664
5.4010229879674645 -0.6749666977418717 -5.008065734920149
5.199836407712817 -1.254320161757324 -4.224401954882946
4.410742447179288 -1.7365332568384888 -3.822663018404047
3.437266420708289 -2.0034051646603 -3.753847012419261
2.435438453046009 -2.03866473037831 -3.8981214714662467
1.4782674430579812 -1.8262150818448009 -4.15306562933708
0.6099760628170234 -1.3674743314843782 -4.401862945270182
-0.14224970326913433 -0.697786891739555 -4.505751875868983
-0.7414341125641232 0.08854271882064864 -4.298086534557505
-1.0773933471989248 0.7522428219702871 -3.6237519587550135
-1.0469635221682503 0.9837502217216564 -2.6446139305280307
-0.7654148310594412 0.8231064284354974 -1.6858582484205538
-0.38409494347091777 0.4563706692250122 -0.8207048090154255
0.0 0.0 0.0
0.30083049110064247 -0.458676250985451 0.8529688775832212
0.4313154709353316 -0.8075933698062595 1.794664665482144
0.3792773458140707 -0.9487755198076101 2.7964455769721774
0.2457057041307808 -0.8926355934190489 3.800093302340629
0.1329634950537136 -0.685844673715594 4.786478857702464
0.09766574879465953 -0.3410244177337438 5.7393295308433645
0.15706436912642338 0.14994848750321654 6.624289542186846
0.28686901790794966 0.7863272517258366 7.40276675301105
0.4312036948487669 1.540698791405802 8.065006532824858
0.5344554040492452 2.369785348574094 8.640276877160815
0.5728277181839571 3.2342136711764122 9.16986033189705
0.559037827170529 4.110431351101921 9.681150064491836
0.5238775893417412 4.989737789613891 10.186152681491015
0.4974082114739209 5.870756038255229 10.688626472342648
0.4956337649032827 6.749092947684165 11.196478200198362
0.5173101488932971 7.609658013267057 11.733352302051657
0.5440568606912413 8.416534527732628 12.347229380060067
0.5282555655066409 9.070910275424762 13.120172962535857
0.374443694051229 9.326428901114225 14.081445388502303
0.06481444090920814 9.090136137275953 15.01428419547265
-0.32215752528026054 8.603637017246468 15.815166496015188
-0.746043411969175 8.023412373556775 16.531335325884218
-1.1874054393657612 7.414628979032693 17.21252069888482
-1.6264517980773614 6.8093931233518985 17.89833049384746
-2.0364111058425873 6.225594582967387 18.61955134738675
-2.3871590466721426 5.670109300175492 19.39253819561896
-2.659129153068583 5.137020098652027 20.211659478133445
-2.8543569148769614 4.61268859683542 21.05785779367194
-2.9926062516203475 4.08378049922406 21.913294294687645
-3.102138307697613 3.543281627907534 22.76571373826498
-3.207092656994433 3.0060811409483343 23.581848875847044
-3.3534538755050445 2.415053986712318 24.431464498048
LINES 1 65
64 0 1 2 3 4 5 6 7 8 9 10 11 12 13 14 15 16 17 18 19 20 21 22 23 24 25 26 27 28 29 30 31 32 33 34 35 36 37 38 39 40 41 42 43 44 45 46 47 48 49 50 51 52 53 54 55 56 57 58 59 60 61 62 63
POINT_DATA 64
SCALARS NodeIdx int
LOOKUP_TABLE default
0
1
2
3
4
5
6
7
8
9
10
11
12
13
14
15
16
17
18
19
20
21
22
23
24
25
26
27
28
29
30
31
32
33
34
35
36
37
38
39
40
41
42
43
44
45
46
47
48
49
50
51
52
53
54
55
56
57
58
59
60
61
62
63
