# vtk DataFile Version 2.0
Vessel Segment
ASCII
DATASET POLYDATA
POINTS 64 float
3.5432303455766356 12.120493814360673 -7.142108218125504
2.8339568449448262 11.394591889819756 -7.394704783166232
2.2146914381086305 10.687575827153793 -7.677496900421691
1.6075769455946192 9.924332910137062 -7.961401490375407
1.0336324940293848 9.120193756690979 -8.194584056645793
0.49718588928368146 8.27102944139427 -8.335027745412173
0.010295282399971246 7.381568639974844 -8.348235523913273
-0.40979269697728343 6.466674631036515 -8.225997077547621
-0.748364015843899 5.538609543473542 -7.996110199075688
-0.9908296732135413 4.596139310814036 -7.70998742012409
-1.109131908218531 3.6299344153210864 -7.425534668132432
-1.0471583180181032 2.6443607440409207 -7.197828528874967
-0.7165485046060913 1.6957173861316999 -7.075625836851349
-0.0527327379410876 0.9342012061775827 -7.06415775393396
0.8668497077341423 0.5146657711474578 -7.080149248168315
1.8745476881766585 0.4198576094653542 -7.037784604622524
2.8769606562952807 0.5130228291458773 -6.91494569405044
3.8571443045983846 0.6764212318038448 -6.710980159925923
4.816318361060439 0.8220982254887386 -6.415073730110819
5.735619263234009 0.8461865841947398 -5.990326255389655
6.365329734831085 0.4445291765643513 -5.326100657375779
5.890194346044248 -0.28412326123075726 -4.855653674924112
4.994467510248048 -0.7293690099561835 -4.718066426304166
4.008489592779177 -0.9611718963294208 -4.673221021336887
2.9966513168467457 -1.0122326994921709 -4.631558385259886
1.9951033155219666 -0.9006230697451751 -4.520609968190755
1.050627446004653 -0.6424826979691245 -4.259669533885563
0.2516043182016949 -0.28127537528873536 -3.754955617080001
-0.2538955767159443 0.06540394238629459 -2.9528603350943
-0.384730221318308 0.23765837351024297 -1.9654170545633232
-0.2550649533407244 0.1975697640789338 -0.9614161618946547
0.0 0.0 0.0
0.3082965628457728 -0.2965220939806882 0.9198051949964472
0.6373077222346502 -0.6408142460116151 1.8157646030955703
0.9736857521630604 -0.9816827386734973 2.710180473700141
1.312325140482327 -1.2615828919511194 3.6245475423223037
1.6456151442031102 -1.412459787844638 4.570243252545406
1.952531805849539 -1.364489363686061 5.534902140464206
2.194658881522574 -1.0721824912077087 6.474122015678792
2.329574718529077 -0.5412478684266172 7.326112998679749
2.332912317153874 0.17440887282254477 8.043445541445326
2.2030896178791743 1.0052228552027396 8.609409578268384
1.9533417680637233 1.891629220994072 9.03367649032146
1.605194740732478 2.7927415050700066 9.342674875607626
1.1866316059786401 3.6878279896109265 9.572450674587818
0.73121105854739 4.5742709600336875 9.762860068592857
0.2744008298469417 5.459565540200155 9.954846730818911
-0.15288878237205558 6.3488959996678975 10.190861777580619
-0.5299366335162262 7.232229740121012 10.516873787998179
-0.8500278838461617 8.072313048654927 10.985501004797358
-1.1199918683728793 8.781825839415655 11.655765027366336
-1.3604161841402043 9.193940444555803 12.546350270047023
-1.5778244770651058 9.178718097628156 13.533231419771722
-1.7600795128452975 8.822172511875833 14.463720236192588
-1.8963923349931062 8.277156274055848 15.307994930235933
-1.9751831598820067 7.643504715756955 16.09622033689939
-1.981173322317179 6.9830945088092875 16.866349949782368
-1.8998544488440656 6.342777140983201 17.648791536248424
-1.7287347622959397 5.75865709509876 18.460185985289687
-1.4900423666918683 5.245572484693457 19.302123857585876
-1.230102626310253 4.786962579742044 20.169661459505846
-1.008366378895248 4.344429766003676 21.056526016025387
-0.8833144586685554 3.8945727278347704 21.920461502053932
-0.918684032671852 3.354510109086708 22.81461251489013
LINES 1 65
64 0 1 2 3 4 5 6 7 8 9 10 11 12 13 14 15 16 17 18 19 20 21 22 23 24 25 26 27 28 29 30 31 32 33 34 35 36 37 38 39 40 41 42 43 44 45 46 47 48 49 50 51 52 53 54 55 56 57 58 59 60 61 62 63
POINT_DATA 64
SCALARS NodeIdx int
LOOKUP_TABLE default
0
1
2
3
4
5
6
7
8
9
10
11
12
13
14
15
16
17
18
19
20
21
22
23
24
25
26
27
28
29
30
31
32
33
34
35
36
37
38
39
40
41
42
43
44
45
46
47
48
49
50
51
52
53
54
55
56
57
58
59
60
61
62
63
