# vtk DataFile Version 2.0
Vessel Segment
ASCII
DATASET POLYDATA
POINTS 64 float
1.1513399047739807 12.76699414510185 -10.151482638453327
1.0547826017435435 11.99640892655389 -10.849678860923142
0.9297533324023234 11.155079431123232 -11.3264937636942
0.7760554769403724 10.182451159779076 -11.609675313653035
0.6192807087412481 9.183015495505114 -11.638920650737276
0.47520569189528733 8.190826989934193 -11.483359579355419
0.3497604792762209 7.2201852046122 -11.216179758524945
0.24298678351099026 6.261900246374605 -10.900459520818242
0.15744459525870305 5.302513559134928 -10.58160076917723
0.10463182136014001 4.332083736740933 -10.290373812946164
0.11115610532280887 3.348406064982972 -10.042281110063762
0.2283306467988399 2.3631343477898876 -9.83146221762263
0.5394784424732989 1.4209147582039856 -9.623030231372043
1.1201043706334506 0.6330805347197315 -9.364051037700285
1.9233960191014807 0.1062411179545124 -9.04121608253861
2.8275312547736786 -0.18478038280300502 -8.685417705742767
3.7628726883815187 -0.31912345801366404 -8.31642990893601
4.702300904257794 -0.35270926747245834 -7.9342599136731025
5.6234417987611005 -0.31705282826322595 -7.513939986289427
6.51579117483228 -0.23336870180913588 -7.030235360768601
6.945322441928227 -0.05420067204125847 -6.138114788838624
6.18493352577668 0.12255178643252536 -5.530633782892811
5.238765822006207 0.28866059701629093 -5.2238526113496295
4.26002085183152 0.4681889028771037 -5.010020077142782
3.2835578831634433 0.6611336833627798 -4.817855847454681
2.3153459783040247 0.8587937029616077 -4.587273584748983
1.3812407994704647 1.0384237733629478 -4.235544491628639
0.5637931493579702 1.1447210345723182 -3.6471860709497217
0.029161443356540417 1.0904796781613613 -2.790335418253522
-0.17039697102052642 0.8522889157472714 -1.8253479313934455
-0.1464558597612887 0.47553553255355513 -0.8840764916157795
0.0 0.0 0.0
0.21273283220891145 -0.5458363916000518 0.8282190996750939
0.4636754931200447 -1.134531508402178 1.6155552465388787
0.7409557257433644 -1.733112991887745 2.3863846038408885
1.0418847318854314 -2.299375880742386 3.172517415103576
1.3649601863580199 -2.776695851187052 4.007234535978553
1.698272237541518 -3.0944042769914417 4.910757219591007
2.0096663063932314 -3.1876088606677415 5.871021477830244
2.251575792797378 -3.030766620287103 6.842888502599281
2.3821782176503135 -2.6520976471425928 7.774350453832275
2.3818409190330097 -2.1126911162431212 8.633147348742366
2.256777276212666 -1.4756697294578704 9.412487745685352
2.0311803624843416 -0.7889327725450742 10.124331520492023
1.737010322369357 -0.07980357267017599 10.787576204161125
1.4051966478935853 0.6417289751098686 11.41894560642705
1.059940471576467 1.3767949407331 12.027178265126903
0.7150538984100097 2.130246445882879 12.612664761509546
0.3736109099700655 2.9029615485823212 13.17447487635126
0.03204100722621905 3.6874988985982156 13.719704058232816
-0.3130826466114626 4.467871201425071 14.26869572978466
-0.6603461438377773 5.21855510913919 14.856203215329616
-1.000038518399107 5.897172574886471 15.529236323572752
-1.3111856757006572 6.434493666319799 16.330764477941536
-1.5698696650105703 6.749259391192201 17.258856988641114
-1.7769714048580574 6.812848201765699 18.24933833813553
-1.9660503011865567 6.666009684456501 19.23496764053153
-2.17364075036064 6.3602406744109 20.179497103888348
-2.426808079148167 5.932321466719543 21.063677773987287
-2.7429740200799833 5.408268259615445 21.87306760604589
-3.129586378925002 4.811874272512907 22.593191469188152
-3.5868835047645002 4.144390081898857 23.225395526908567
-4.058813493749003 3.468163084869525 23.744845855193947
-4.495433076676884 2.6599660204489 24.24192511817711
LINES 1 65
64 0 1 2 3 4 5 6 7 8 9 10 11 12 13 14 15 16 17 18 19 20 21 22 23 24 25 26 27 28 29 30 31 32 33 34 35 36 37 38 39 40 41 42 43 44 45 46 47 48 49 50 51 52 53 54 55 56 57 58 59 60 61 62 63
POINT_DATA 64
SCALARS NodeIdx int
LOOKUP_TABLE default
0
1
2
3
4
5
6
7
8
9
10
11
12
13
14
15
16
17
18
19
20
21
22
23
24
25
26
27
28
29
30
31
32
33
34
35
36
37
38
39
40
41
42
43
44
45
46
47
48
49
50
51
52
53
54
55
56
57
58
59
60
61
62
63
