# vtk DataFile Version 2.0
Vessel Segment
ASCII
DATASET POLYDATA
POINTS 64 float
1.0936299205150213 9.80875012907755 -8.425651209420819
0.5099924420467883 9.003096915988067 -8.162638220575744
-0.022886551062429424 8.162965131761828 -8.051880707578496
-0.5006260594935822 7.271237875519642 -8.006406086615463
-0.8954933748582389 6.337671095530668 -7.972162027795872
-1.1796347481994076 5.367059903062942 -7.8982517030360775
-1.3188527746289496 4.377409785748623 -7.729922686236635
-1.282670646754785 3.4172903904663943 -7.409774033409093
-1.0805483040203334 2.558308984708 -6.912661507428344
-0.7756670596215872 1.8271150635594533 -6.279949373608244
-0.4192365268141708 1.1757101860623422 -5.588682167258069
0.02099401124514441 0.5471495662263423 -4.926012892563462
0.6831725027429221 -0.023336157615165137 -4.419649382164571
1.6044518211128556 -0.35061140322015627 -4.168614110618275
2.608324053649291 -0.3671847900215593 -4.0379722074999895
3.582754855338944 -0.13731472492762564 -3.882400649195163
4.4887256962916355 0.26644137001567747 -3.6721327325247937
5.330435062398804 0.775458242178414 -3.4245374022758868
6.121635274265144 1.3447740314144072 -3.1434918150443805
6.855462237323655 1.9550636382750661 -2.800309188419638
7.426372125016611 2.6004889035212817 -2.2695190039765145
7.195345510620716 2.9198068921343636 -1.4017247165825162
6.461255387874019 2.6628550003636473 -0.7586851235908768
5.708020742668472 2.134564561657524 -0.33701809555151985
5.005902487402226 1.427522571678183 -0.15937014372318242
4.34246482186357 0.6658520197168761 -0.23775342324785792
3.6544071650348124 -0.03039595443665562 -0.5012834760303576
2.8841630717626705 -0.591715326972525 -0.8462731730025949
1.9922982219594683 -0.9544036496959379 -1.1587060355649865
0.9905468874866827 -0.9873275027304972 -1.2494189876538144
0.21161263357591076 -0.5540659588227549 -0.814814930362137
0.0 0.0 0.0
0.14130168400751286 0.3835721363789247 0.9253899770647389
0.44753477500390154 0.5391633249672989 1.878360204163656
0.7994791091900694 0.5062104492909324 2.8288158618922274
1.11444805167569 0.3978872415614364 3.787016091124827
1.3149688829187023 0.4053501040145476 4.7793547377655345
1.3090289873337149 0.7425356214545762 5.729821874361943
1.0956408411202518 1.3731672206949521 6.491549919992165
0.7426740580737368 2.1330182168551395 7.061502050573987
0.2869191618062438 2.939293301990134 7.473724581507319
-0.25328722551418215 3.7544976305094337 7.741401034300955
-0.8508049983097558 4.561096475211507 7.8868004814291774
-1.4569134422094927 5.369670022629245 7.9782576564298004
-2.005861284187 6.209996658512053 8.121921396856829
-2.4321957586509515 7.082962939034253 8.409573526671297
-2.7156035799670915 7.941382250734181 8.867621848034783
-2.898709551786649 8.731775269856845 9.475368925777168
-3.0392726733257978 9.404499518195134 10.220312490627384
-3.1765482032963694 9.882044718959342 11.102461760285987
-3.3142602643724413 10.04902021188961 12.08979398278669
-3.414635111454804 9.843384694600644 13.074466761209562
-3.440801894554358 9.345253227168127 13.955717531671208
-3.3905680178531123 8.68168729810853 14.720591580941601
-3.2835001832252084 7.941287572326524 15.405686260542325
-3.139638280616369 7.177435906526669 16.05782252943911
-2.9592029447454262 6.43019182001894 16.719848755652233
-2.7009962282388886 5.745972159371733 17.422166176175317
-2.283864826476782 5.196077293633182 18.16313995810618
-1.6639545538175269 4.851942783874903 18.88552817737802
-0.8984283029557686 4.699317324815817 19.53179058357761
-0.06017595260382993 4.65907481138395 20.098239715017364
0.8071004643182422 4.656295977892548 20.597792449126157
1.7267680244845927 4.615550586969266 21.059863778025036
LINES 1 65
64 0 1 2 3 4 5 6 7 8 9 10 11 12 13 14 15 16 17 18 19 20 21 22 23 24 25 26 27 28 29 30 31 32 33 34 35 36 37 38 39 40 41 42 43 44 45 46 47 48 49 50 51 52 53 54 55 56 57 58 59 60 61 62 63
POINT_DATA 64
SCALARS NodeIdx int
LOOKUP_TABLE default
0
1
2
3
4
5
6
7
8
9
10
11
12
13
14
15
16
17
18
19
20
21
22
23
24
25
26
27
28
29
30
31
32
33
34
35
36
37
38
39
40
41
42
43
44
45
46
47
48
49
50
51
52
53
54
55
56
57
58
59
60
61
62
63
