# vtk DataFile Version 2.0
Vessel Segment
ASCII
DATASET POLYDATA
POINTS 64 float
2.4439828583038516 14.538063047010898 -9.864515000291105
1.902744829197724 13.953267774009397 -10.540782675504078
1.41511147602801 13.19273072849904 -10.921663766254206
0.9987953333555916 12.27170477736863 -10.991610252420461
0.6841702796993674 11.321399093104352 -10.827545586823872
0.42966050804564115 10.369499324964071 -10.585793107609472
0.2084615988100498 9.401477744127966 -10.37814106544742
0.028115991296358122 8.408534687343671 -10.277902636929452
-0.07505384249986609 7.400721795580795 -10.319782400850169
-0.05116356867257637 6.400183603739498 -10.482342162827308
0.15011988275735666 5.428897023320587 -10.691619394590429
0.5748936449033651 4.522390440947609 -10.846282697014889
1.2365511151578157 3.756673113418629 -10.846800297920192
2.0678644451833588 3.2094296217322573 -10.660633632585801
2.969072925671021 2.883287879239334 -10.331043852256446
3.876173931086246 2.7386611126773217 -9.902422959453286
4.748622816044192 2.750721741496426 -9.383996702679244
5.50760891318718 2.9407355887153876 -8.7269740066401
5.516132453408473 3.3851834923379043 -7.901301955266604
4.664327872826596 3.703067028205563 -7.450729593917689
3.7063711891553077 3.88690066696879 -7.1728740154630275
2.7281048170044913 3.9949443283869255 -6.926591523274467
1.7528806751720118 4.03180080547902 -6.649741971299001
0.8099707450815308 3.9728705105438142 -6.2817693227492235
-0.017965897577231865 3.759208141900735 -5.740089474305654
-0.5511135278165503 3.339414715262034 -4.992492647218548
-0.7176364857155665 2.7831164562204465 -4.162950286800724
-0.6659684151170281 2.186641102836804 -3.344353772209189
-0.5233353223092859 1.5881539407898404 -2.5375888082785836
-0.3498831754091498 1.0078027803324885 -1.7237401485181119
-0.17226239124408407 0.4678906405053475 -0.8832985660476744
0.0 0.0 0.0
0.16848327392628928 -0.35411545563930286 0.9353486549490935
0.3401977666366865 -0.5464731253448898 1.9158664333842896
0.5187252597563022 -0.5377403050820155 2.9135924034419856
0.6961731893929409 -0.3163955712652677 3.886735247009996
0.851950116948848 0.09794651567499937 4.79881877904764
0.9606128315876059 0.6679494050136839 5.6303861265240736
1.0001063441685725 1.353556270647324 6.376596406334779
0.9574963026416751 2.1183060526806776 7.041459171458134
0.8316341500979492 2.9317691702587285 7.634218014562501
0.6306744074952138 3.7699434278573576 8.169182557737978
0.3666562653051561 4.614388229080248 8.66561251488878
0.05178434922323864 5.44903971232508 9.148838156244281
-0.3034503309839756 6.255993573292561 9.65079787484089
-0.6901238905120757 7.01033493118549 10.207934129703744
-1.098733914778989 7.675358488508169 10.855369329410777
-1.5145752875682537 8.202864933349236 11.614733185134458
-1.9148564655798566 8.548915826642004 12.479207310727903
-2.271383874836044 8.695720462226365 13.41666876434736
-2.5571985159340125 8.657415067070595 14.388603889368337
-2.7531287108241114 8.465933019678092 15.364986398241951
-2.8485719104502536 8.154219539776813 16.325249270871208
-2.839575529636142 7.743997646062227 17.252740057162963
-2.7234560988187098 7.242038384229213 18.12621190541723
-2.494767038274578 6.644838284914651 18.91298416648509
-2.151908357572793 5.954042011321825 19.57092379080624
-1.709067068863939 5.192046122259209 20.07208856989423
-1.1948559759551731 4.394862737956964 20.430725599643704
-0.6363039819558167 3.5910824262076426 20.697264079588525
-0.050685009029147556 2.7963960013482203 20.934278144202274
0.5492576408489727 2.022469614476863 21.2057141560696
1.1273111280899657 1.310398496002365 21.554469583211418
1.7059907195231847 0.6360902315278 22.105416658356823
LINES 1 65
64 0 1 2 3 4 5 6 7 8 9 10 11 12 13 14 15 16 17 18 19 20 21 22 23 24 25 26 27 28 29 30 31 32 33 34 35 36 37 38 39 40 41 42 43 44 45 46 47 48 49 50 51 52 53 54 55 56 57 58 59 60 61 62 63
POINT_DATA 64
SCALARS NodeIdx int
LOOKUP_TABLE default
0
1
2
3
4
5
6
7
8
9
10
11
12
13
14
15
16
17
18
19
20
21
22
23
24
25
26
27
28
29
30
31
32
33
34
35
36
37
38
39
40
41
42
43
44
45
46
47
48
49
50
51
52
53
54
55
56
57
58
59
60
61
62
63
