# vtk DataFile Version 2.0
Vessel Segment
ASCII
DATASET POLYDATA
POINTS 64 float
1.1608837326661539 11.161662135119007 -11.231451820213717
0.489428679028162 10.43941598635834 -11.58678945424215
-0.03913642587689911 9.64710415993062 -11.796945956584546
-0.4540801988649937 8.718424847097975 -11.81702637508902
-0.6932138544370516 7.765722476626181 -11.56944429007684
-0.8030058159600786 6.874573906435508 -11.098921094928967
-0.8529842436922249 6.063748878656486 -10.491507183930427
-0.876771166708334 5.311536889280706 -9.811175067350005
-0.8635057454363577 4.58592240231877 -9.102209415640397
-0.7571937101251377 3.849626884843271 -8.412737915061614
-0.4236196548693999 3.082906081833587 -7.842673532548635
0.2388525451239963 2.3886547948169956 -7.526336925638589
1.0982423276876285 1.8675337684798128 -7.392324262858
2.0324329518034228 1.4896646982926358 -7.2771456984209175
2.9944881538891535 1.2247748589093284 -7.09553459982937
3.952685031275455 1.055807878918855 -6.809298825728939
4.8768023177007125 0.9629962083503892 -6.401904912229196
5.738573695655718 0.9195822863900065 -5.868934369374648
6.512747179668969 0.89184118439319 -5.214342426869282
7.17061088544013 0.8420795234895992 -4.444330223481407
7.656349997547142 0.7251290815985739 -3.5627027446034845
7.804351879374649 0.4684258986511846 -2.593635656334152
7.220064320696698 0.06527557510441438 -1.9217596949304285
6.240722142132812 -0.193580717898159 -1.9234615793465228
5.2700358948499915 -0.2790176549862167 -2.2036392662715056
4.312855337986286 -0.24729587552410132 -2.538096804380386
3.34038892368833 -0.12763072640697506 -2.799997126566315
2.343948251599632 0.04756409180844603 -2.857069220055608
1.3911064873351577 0.20931505946100953 -2.560302837976822
0.6444624332307962 0.2633636704794577 -1.8813858744864538
0.19428986950209348 0.18110346322792062 -0.9782883649307499
0.0 0.0 0.0
-0.010105158273294652 -0.23532562784574287 0.9864048284685918
0.10481988946073209 -0.49305999041132864 1.9607805131713414
0.29996480318576274 -0.7502926254809168 2.9225549168823184
0.5395563831062733 -0.987654727107462 3.8794540666146022
0.7936174018426749 -1.1869727823128011 4.8412591463262125
1.0391139482452711 -1.334454738553372 5.814518540708141
1.2596669768187911 -1.4230181140183313 6.8008287623691235
1.4443109563400505 -1.4477073630721153 7.798069609882754
1.5833402158022765 -1.3948583614825543 8.801521504059716
1.6640072667955974 -1.2346333996608905 9.799762373292841
1.671714932302472 -0.9227888438254108 10.76445352294152
1.5945712534506002 -0.4184200434021918 11.639974034355
1.4334324924722828 0.27926615624925144 12.356856611293969
1.2045116855220603 1.112295926825844 12.887431104513215
0.9224654366609956 2.0078401630201848 13.27122871608421
0.5878330989202714 2.916118927175175 13.575041875648319
0.19370177084522258 3.806903328243044 13.85853076158061
-0.261906697360267 4.661385880326688 14.161075687837755
-0.7665745003086176 5.472975002924872 14.501497168075046
-1.298326803657487 6.242494661084814 14.894175450308333
-1.8304906823891725 6.968038380734914 15.362626848742796
-2.3315287688976385 7.632838468988058 15.941873508129902
-2.766672261931674 8.196089969548886 16.663719356969217
-3.106152806463837 8.59601438557799 17.530681988426377
-3.3491104918403285 8.775402718415759 18.49797426499964
-3.534377441283117 8.708909013305616 19.492113215752486
-3.7138632009452373 8.403716730405522 20.44179610018336
-3.9226319729552324 7.89521075056207 21.293383981044258
-4.165892745288497 7.235934857650351 22.024925454781034
-4.428048009386334 6.471646028066382 22.646825122316237
-4.675935388518239 5.68015704556295 23.159463065825392
-4.897718742028507 4.776911796461595 23.643654495387313
LINES 1 65
64 0 1 2 3 4 5 6 7 8 9 10 11 12 13 14 15 16 17 18 19 20 21 22 23 24 25 26 27 28 29 30 31 32 33 34 35 36 37 38 39 40 41 42 43 44 45 46 47 48 49 50 51 52 53 54 55 56 57 58 59 60 61 62 63
POINT_DATA 64
SCALARS NodeIdx int
LOOKUP_TABLE default
0
1
2
3
4
5
6
7
8
9
10
11
12
13
14
15
16
17
18
19
20
21
22
23
24
25
26
27
28
29
30
31
32
33
34
35
36
37
38
39
40
41
42
43
44
45
46
47
48
49
50
51
52
53
54
55
56
57
58
59
60
61
62
63
