# vtk DataFile Version 2.0
Vessel Segment
ASCII
DATASET POLYDATA
POINTS 64 float
0.948433631925077 4.752733541929916 -6.398989617505541
0.8230615956940432 4.68657683859976 -7.407230847737299
0.4300365213557614 4.296512387238758 -8.24303810770346
-0.10259937853032766 3.6513499105471037 -8.809114320971897
-0.6459520042809758 2.840280159951491 -9.073158812975457
-1.1028176461720867 1.940829624500569 -9.01126033972342
-1.4091290028654373 1.0626794078695814 -8.615143224295858
-1.5722242525229455 0.3045308809653193 -7.964140538138068
-1.626250017258009 -0.32559144906561743 -7.1719076501960615
-1.483675171622414 -0.8778053930371973 -6.335944006312318
-0.8611124620074165 -1.3166652823387788 -5.686913957881419
0.05424762095229916 -1.5242530738258198 -5.3068399362157415
1.0011719504888392 -1.5474477435114882 -4.945694580704977
1.9088436643238411 -1.4094526800935117 -4.516006193701456
2.7589840460392745 -1.1267723699478371 -4.041043821199716
3.572721201486287 -0.7245849142459032 -3.588635880743939
4.37274578446915 -0.23548837831659214 -3.20181520714156
5.1537860502278185 0.30760266861496427 -2.8492134343760718
5.885025676299464 0.876063597439189 -2.43631545465187
6.472402225429932 1.4080051063234498 -1.8093472930581187
6.568624740934496 1.6248278357431176 -0.8524474148735162
6.034143531288147 1.2814019614192897 -0.07988082006581529
5.3023277881215725 0.6705510470889836 0.2504131527382478
4.550353703591186 0.00020604331805008913 0.17578715936609085
3.8270066793818263 -0.5492580138069831 -0.2662288723500654
3.133261766208948 -0.8288468936557418 -0.9468757572616752
2.43838268114931 -0.8262238572226496 -1.6838226696347884
1.678522125627246 -0.6278073738274756 -2.323266458162418
0.7618626595291097 -0.3253297372862507 -2.5983861897525258
0.022967555522900824 -0.12100639982845296 -1.9866343984462291
-0.16515904650931765 -0.052996635427659575 -0.9968196880855704
0.0 0.0 0.0
0.4724651973163309 0.057531790581726416 0.892294816114657
1.1983284193245796 0.060416594785690586 1.597708349152539
2.0320343358751987 -0.08374156335451395 2.1555173835103045
2.7891198320168566 -0.4256634416607439 2.733818758237517
3.2508713740797814 -0.8799306511226019 3.506763801140913
3.3039629197159526 -1.1950804686691014 4.46263043105982
3.0466216311778402 -1.1921150349167557 5.439021887265902
2.6297265218720884 -0.8876423633323478 6.309270585793792
2.1433293397221043 -0.3785222625831379 7.038033730678472
1.6161343125951615 0.24179973637888727 7.642718338069123
1.0503859447390764 0.9110671738229462 8.153512008370804
0.45090309943406176 1.6054768701357145 8.586414656434737
-0.15762226108076094 2.338702090382482 8.934033049283727
-0.7330068866885874 3.132019646327138 9.195311131247914
-1.2481460431562874 3.9757768559085735 9.423129008887601
-1.7175420791534666 4.825529250134226 9.71662239549945
-2.172651858015396 5.615255586740225 10.15962804557993
-2.6287207673496242 6.265827309557621 10.787564441179645
-3.0729626051968104 6.705707688193562 11.583817382095939
-3.4678117115675926 6.908447172072263 12.494160393980216
-3.7712677540219905 6.893615636912382 13.46061465717306
-3.9585263061141576 6.693322458097065 14.436141895145116
-4.033191914472022 6.3434847370811225 15.384698726251134
-4.016584084146256 5.89488022640467 16.294224824435044
-3.922513638562648 5.402235032931921 17.17604086372226
-3.734258380905595 4.900499719960943 18.037016719463374
-3.3991515105164543 4.405477920406905 18.855534314888885
-2.8694269810659665 3.932945369460452 19.57819073762132
-2.17237125624218 3.493597536399594 20.168375645752615
-1.3854871366654704 3.086051904384646 20.65953350926229
-0.5722565538301675 2.7159596694954597 21.122797616835356
0.23695865252536466 2.395312284181687 21.661457322071378
LINES 1 65
64 0 1 2 3 4 5 6 7 8 9 10 11 12 13 14 15 16 17 18 19 20 21 22 23 24 25 26 27 28 29 30 31 32 33 34 35 36 37 38 39 40 41 42 43 44 45 46 47 48 49 50 51 52 53 54 55 56 57 58 59 60 61 62 63
POINT_DATA 64
SCALARS NodeIdx int
LOOKUP_TABLE default
0
1
2
3
4
5
6
7
8
9
10
11
12
13
14
15
16
17
18
19
20
21
22
23
24
25
26
27
28
29
30
31
32
33
34
35
36
37
38
39
40
41
42
43
44
45
46
47
48
49
50
51
52
53
54
55
56
57
58
59
60
61
62
63
