# vtk DataFile Version 2.0
Vessel Segment
ASCII
DATASET POLYDATA
POINTS 64 float
1.0285766975536075 10.323756004779508 -7.045125491584381
0.6615755074034985 9.575190973048041 -7.678570681545007
0.2473587409954261 8.78963415601611 -8.079397892998232
-0.15819985967875363 7.903527407218691 -8.390258706768112
-0.4665204009284185 6.953664134221043 -8.56116396387053
-0.5742108290462992 5.947317144375409 -8.534195513721306
-0.400013191317239 5.01117764171981 -8.197048312206554
-0.10450580258426148 4.2656276486648705 -7.5765707138300815
0.0522233498385564 3.5978688949307163 -6.830142597038646
-0.030497599555405104 2.8773654593616396 -6.121980488749321
-0.24346444033645834 2.073496930022032 -5.541777465229478
-0.36207240943143315 1.1746996098186557 -5.08863385592878
0.004794157438317094 0.3052880024873247 -4.74545856624346
0.850193987441848 -0.18282841468601574 -4.468799403386243
1.8011291497179716 -0.3931106357060901 -4.188000626278535
2.774208210122114 -0.4867621563052325 -3.916484573599213
3.770055452386008 -0.5239939545717653 -3.727613674606243
4.783603076120816 -0.5137780209408369 -3.6933475404952993
5.788582446361 -0.4454309442953166 -3.8115108620068208
6.778747869302843 -0.3155574730311943 -3.990703091506861
7.781170533500392 -0.13071766022625417 -3.9090068445545767
7.860574624645011 -0.10118764911091149 -3.048973878717061
7.106186797397723 -0.2248953719042589 -2.3516747192708904
6.168137482191458 -0.357620567111886 -1.9910111954816128
5.160574488048806 -0.4495975446240567 -1.9717650960487323
4.168364852989518 -0.46072112491220435 -2.1829653028036824
3.190860717865389 -0.3847152916331785 -2.443671320099109
2.1999922733738364 -0.23171621219607583 -2.5952747895293222
1.215640364145938 -0.016675358865799926 -2.488780181994942
0.39993096089232505 0.19281311171475476 -1.9334080324736094
0.03880749353116339 0.20766882710093756 -0.9912611570780623
0.0 0.0 0.0
0.04674790224740078 -0.3242204203327975 0.9602151577086601
0.08842305950465432 -0.6796186241756421 1.9096534618393597
0.10876102617187347 -0.9976169045020377 2.872856852079067
0.127061527744846 -1.2290586357543143 3.8602988774524687
0.1685571597874798 -1.3575941004927226 4.8656910471084025
0.24140833192532923 -1.394899571214586 5.876866854038406
0.3341417893636916 -1.3527674797731837 6.886266430813297
0.4302327331568723 -1.2305569774190888 7.888829490019017
0.5209246854420199 -1.0224109524600455 8.877559664098776
0.6047482283631572 -0.7247812796381115 9.843748509982493
0.6786265273674171 -0.33554324188434415 10.777643123403239
0.7279615673160246 0.15073198582834008 11.666481114970951
0.7255481564779028 0.745041660247383 12.488316080972615
0.6424662799711092 1.4538200177402651 13.208786756575499
0.4689442088546906 2.2618285653232 13.796360460150064
0.22340468706873368 3.135349699520246 14.249695862393887
-0.06260427275319869 4.044244929431834 14.597947506789344
-0.3628057299949739 4.9715698556160985 14.87956790883874
-0.6628214268570248 5.909092966017208 15.125451535107665
-0.9600063400013473 6.850908579527108 15.357954864351886
-1.2594660798908894 7.79039912479131 15.597003110814377
-1.5664683804251673 8.718435178451362 15.868674417512471
-1.881656505697817 9.620767702210568 16.20868466799079
-2.19768286511511 10.471180376508007 16.662099271292043
-2.4938311937022033 11.22087092774694 17.276993092182032
-2.7322129372086943 11.792421643997914 18.078868388456822
-2.8745739385658746 12.107068411828735 19.031131799638228
-2.9197437007615075 12.144766493606468 20.042821613150892
-2.9096025519659676 11.940446172574035 21.035293108619257
-2.921937458931591 11.523355096882195 21.96637446713049
-3.030468201184438 10.960446407139187 22.759471088984508
-3.4496499812311834 10.207398368484752 23.349291485268964
LINES 1 65
64 0 1 2 3 4 5 6 7 8 9 10 11 12 13 14 15 16 17 18 19 20 21 22 23 24 25 26 27 28 29 30 31 32 33 34 35 36 37 38 39 40 41 42 43 44 45 46 47 48 49 50 51 52 53 54 55 56 57 58 59 60 61 62 63
POINT_DATA 64
SCALARS NodeIdx int
LOOKUP_TABLE default
0
1
2
3
4
5
6
7
8
9
10
11
12
13
14
15
16
17
18
19
20
21
22
23
24
25
26
27
28
29
30
31
32
33
34
35
36
37
38
39
40
41
42
43
44
45
46
47
48
49
50
51
52
53
54
55
56
57
58
59
60
61
62
63
