# vtk DataFile Version 2.0
Vessel Segment
ASCII
DATASET POLYDATA
POINTS 64 float
2.4366886063906095 13.584097004731785 -5.7613323796581355
1.8566649742303039 12.718309064763284 -5.851358575552097
1.325986012903536 11.897518740311954 -5.9395995901832475
0.7810287389429382 11.044285018925265 -6.0244091433145455
0.1800820223718312 10.232031821513026 -6.117125417271862
-0.4035190223841953 9.407758850855814 -6.2109527457971305
-0.947495724994546 8.558144225847917 -6.315898660394018
-1.4366873769058826 7.673857392661092 -6.395780313364313
-1.6853236246739043 6.696353056546975 -6.303608097663763
-1.6587166779752593 5.722001567576652 -6.031892131145061
-1.386277970033939 4.842007605495287 -5.610367216582936
-0.9579011341131328 4.077615679579396 -5.099921029161743
-0.44788122793557367 3.397807783680376 -4.546035207300321
0.10899990364533833 2.7731309635191934 -3.97252103246685
0.7108646575590091 2.1979710657025313 -3.3927400767960267
1.3790196293230723 1.6946046126737924 -2.8191610406212337
2.141531074895637 1.3123406550336343 -2.2711631559630536
3.0008198448726078 1.1073507530548656 -1.77436958840844
3.9170048792686125 1.0999774023002002 -1.3405183127204374
4.838607481535802 1.262927783059094 -0.9498762535630565
5.726477446750415 1.555419869955483 -0.5565725067628196
6.533826731328009 1.9437404651427612 -0.08377205385473326
7.091246580258765 2.3870578774909528 0.6379241503141735
6.796173770609224 2.5941502208082885 1.5531219902773385
5.962551676951628 2.4568096167073907 2.107963880948426
5.0259279785307935 2.1506951739741273 2.3378324715083894
4.108553372677837 1.7295822416542668 2.2618081551408213
3.2759812354424844 1.256116390336084 1.9299164188145643
2.5098803194367245 0.7965676168306247 1.449502782154364
1.7480526366056253 0.3970056953608939 0.9119349627694714
0.9267513970380618 0.1055112282903545 0.3935298078091419
0.0 0.0 0.0
-0.9879068699774439 0.17790824940428968 -0.10384511633470729
-1.853566855449271 0.624125537512059 0.16540320388886454
-2.4936851351560345 1.2015814350639855 0.6967774153143498
-2.9145924386132163 1.8189577971393758 1.381266927332106
-3.1044351662321246 2.4267159568938905 2.1691341186885085
-2.983713430299699 2.9588160180223326 3.0209606222178245
-2.4501950140629454 3.277924563617982 3.814498822260324
-1.626862884307098 3.3121627537645133 4.401646274636847
-0.724946458517096 3.166239445668499 4.841886862036638
0.17160126596455386 2.932546915422806 5.2551666687805145
1.0183819082528776 2.6648558456592646 5.744820456096897
1.7439569963902122 2.4178984823367644 6.407089095439633
2.2263192258296916 2.2682058114019683 7.283145235134785
2.378336098896473 2.2813479937652423 8.283187886241887
2.2516634906569473 2.4678615288335917 9.270495067340109
1.937585969520464 2.82879048684499 10.163576969353814
1.509958827117036 3.3662950917091425 10.908452481906505
1.0376253880744977 4.058505098928103 11.478550065815009
0.5747562095393074 4.863426459475999 11.885965240280665
0.1420495655938492 5.73460310118602 12.173627606926036
-0.2686740127795607 6.636982428376858 12.388887608704733
-0.6716189274271958 7.55125565877966 12.56518020096588
-1.0714648247139091 8.470579826867395 12.721352439837668
-1.4586101004204215 9.396574624790125 12.869894004275682
-1.8162836375083151 10.333231664916523 13.02519549804491
-2.130192905442001 11.280668969024548 13.207104385704584
-2.3969000205449826 12.2321039410674 13.436795622897044
-2.6245985586798346 13.174556676372934 13.735150992145574
-2.828159652007031 14.08865970925804 14.12608418020426
-3.0258187916509414 14.942478999071623 14.638207155473022
-3.2276989633725273 15.666620696135396 15.271403330693195
-3.4723361496034504 16.226863335810744 16.11782626831403
LINES 1 65
64 0 1 2 3 4 5 6 7 8 9 10 11 12 13 14 15 16 17 18 19 20 21 22 23 24 25 26 27 28 29 30 31 32 33 34 35 36 37 38 39 40 41 42 43 44 45 46 47 48 49 50 51 52 53 54 55 56 57 58 59 60 61 62 63
POINT_DATA 64
SCALARS NodeIdx int
LOOKUP_TABLE default
0
1
2
3
4
5
6
7
8
9
10
11
12
13
14
15
16
17
18
19
20
21
22
23
24
25
26
27
28
29
30
31
32
33
34
35
36
37
38
39
40
41
42
43
44
45
46
47
48
49
50
51
52
53
54
55
56
57
58
59
60
61
62
63
