# vtk DataFile Version 2.0
Vessel Segment
ASCII
DATASET POLYDATA
POINTS 64 float
2.259732370638422 13.763433485275048 -7.294620077694654
1.6308992398597906 13.128396966163544 -7.810021019042403
1.0824196076465662 12.37061995817078 -8.134946692889125
0.5880524897332797 11.496638867347365 -8.334581664169736
0.18065411009017973 10.574918416969332 -8.424581951658434
-0.16079441190240312 9.61950113632711 -8.463241926466809
-0.44195556425855304 8.645187061744458 -8.489172365317925
-0.6650238630295079 7.656687566320842 -8.540039309603904
-0.8148028058835084 6.659031440039343 -8.647430018409915
-0.8525324431516396 5.66268640168211 -8.834661096456022
-0.7186745953746664 4.694136287691413 -9.10452750662372
-0.3622917320814248 3.7969249025808596 -9.41530759684536
0.21491211125874876 3.0111997817071763 -9.694791913332415
0.9597889662849712 2.34955717251994 -9.88535620183435
1.8104309680996522 1.802240110610617 -9.962207816634187
2.719212743055767 1.3532657586003896 -9.921256729127583
3.65308587532302 0.989824373339289 -9.763159495960023
4.5857655888539774 0.7049044188597449 -9.483633202693216
5.48770134577157 0.49941340747541935 -9.067167301373908
6.307057738093788 0.38468930721416567 -8.480476316216041
6.914763451010895 0.39178864348225867 -7.666644416703795
7.058210377811814 0.5382999854118741 -6.679547239080068
6.704811920402028 0.7474899511186849 -5.7524064586001264
6.075401876376024 0.9366877228498213 -4.979251785660302
5.318093378922515 1.078580018732391 -4.319306030248797
4.49673920073379 1.1630567741066045 -3.7297373587825233
3.6458974906512993 1.1818386832551595 -3.1774168792031188
2.7912692037213405 1.1249061440273156 -2.6336111175962973
1.9603228703335598 0.9810899258700573 -2.069542702582751
1.1887641971609775 0.7413730874269191 -1.4560240572161987
0.5216157385212573 0.40694047789901855 -0.7689339400570262
0.0 0.0 0.0
-0.35944876966447054 -0.4395373126189555 0.8406193514241075
-0.5725895824633681 -0.8690243997955382 1.734658851216261
-0.6745337365801588 -1.2547985014756127 2.6673850701860866
-0.6991119617715168 -1.5718873747622264 3.6308015691437525
-0.6709656374036755 -1.798469500854292 4.619312085846719
-0.6079002914153934 -1.9124192439445697 5.625455790076481
-0.5236490090187319 -1.8916955264002637 6.636188915116514
-0.4299196117586279 -1.7206942210347491 7.631774608182562
-0.33685114547081146 -1.3971921704824517 8.588727987127662
-0.25310452090627694 -0.9350401582644041 9.48793175834326
-0.18514364409425008 -0.3580027711130056 10.31961306651447
-0.13720541901235833 0.3085196577562524 11.082980775191945
-0.11142652642839306 1.0423341191102475 11.783121946687036
-0.10803005141091744 1.8262687524643721 12.427177367194885
-0.1251836386905548 2.646954502100087 13.023461002372954
-0.15932924377739338 3.4936863800739366 13.581403039020076
-0.20502606152085182 4.356584760823957 14.113155367791853
-0.2561777518574722 5.22591124836796 14.63382089015967
-0.306756668633848 6.09091515077479 15.161628360854763
-0.3521479336617074 6.937889717235841 15.718431460933687
-0.38963457412791896 7.748429237771091 16.327511521027947
-0.4192896597993323 8.49745491207678 17.011131009126036
-0.4441025166402087 9.152009367785297 17.785780364124616
-0.4702269430028823 9.673290192931333 18.655652254980158
-0.5064126418741723 10.025407685336154 19.60617772417967
-0.5635073791651005 10.190507467514124 20.60546066158735
-0.6522286685131511 10.17848516411988 21.615781852569917
-0.785145524277416 10.017616758057121 22.609387581740656
-0.9726577110731967 9.744134500013441 23.5650309668081
-1.2480129344505786 9.382785044751303 24.482876602246524
-1.6125665619124567 8.985160352963812 25.313269829650654
-2.1796771115727904 8.567612115982207 26.067372240579353
LINES 1 65
64 0 1 2 3 4 5 6 7 8 9 10 11 12 13 14 15 16 17 18 19 20 21 22 23 24 25 26 27 28 29 30 31 32 33 34 35 36 37 38 39 40 41 42 43 44 45 46 47 48 49 50 51 52 53 54 55 56 57 58 59 60 61 62 63
POINT_DATA 64
SCALARS NodeIdx int
LOOKUP_TABLE default
0
1
2
3
4
5
6
7
8
9
10
11
12
13
14
15
16
17
18
19
20
21
22
23
24
25
26
27
28
29
30
31
32
33
34
35
36
37
38
39
40
41
42
43
44
45
46
47
48
49
50
51
52
53
54
55
56
57
58
59
60
61
62
63
