# vtk DataFile Version 2.0
Vessel Segment
ASCII
DATASET POLYDATA
POINTS 64 float
0.9647915694477922 14.95702017467192 -9.029966915548195
1.6111604607603123 14.57209804975927 -9.732081768825202
2.0078247078144207 13.924601185310694 -10.37184806358557
2.026682280365799 13.018706236090964 -10.837944921558726
1.714453261745949 12.076447012461436 -11.046754077807323
1.2602108405550612 11.17179215853565 -11.108755146936616
0.7438942609864592 10.298472658400371 -11.090573837709805
0.20919511498937024 9.437901386724338 -11.035585084222108
-0.30866906191008486 8.567602455097209 -10.97836982228627
-0.7548120077054096 7.6557418731787505 -10.963933962062088
-0.9352525391717096 6.66233783662946 -11.075386036093084
-0.6032803302321089 5.733988159869255 -11.278330970885722
0.07471749564382163 4.986692127944241 -11.404107011160042
0.8670664887972382 4.353712257795164 -11.394568807790135
1.6950521884281429 3.7829753686407974 -11.260067523073445
2.525779523190377 3.256391009022541 -11.011295094737084
3.3412765654221745 2.7664535985218337 -10.658804333570155
4.129398983849205 2.3110757631165972 -10.210727547975017
4.87689506388384 1.8914206532594078 -9.667847193254634
5.557530497842146 1.5139830636686358 -9.017981226792159
6.109913117351466 1.1954378820878713 -8.22484297913549
6.307420633484505 0.9994003402883248 -7.256681268428324
5.899997693193674 0.9938424828273268 -6.33407682324056
5.1323366163040856 1.0856863900037437 -5.670190837353903
4.280194891058179 1.1686892121052368 -5.128151498498437
3.4103524238239635 1.2117934937985944 -4.607037721878785
2.5662796488025448 1.1942742605082532 -4.044493118590001
1.7902016727216663 1.1003611006563094 -3.3978894440835647
1.1303502675121875 0.9212920761350633 -2.648517387003962
0.6200382860189336 0.6635930336931606 -1.8105114151831616
0.25415892640188353 0.3483328963653108 -0.9183358153453358
0.0 0.0 0.0
-0.17947523573917007 -0.35973438588460316 0.9315474289646991
-0.31344844363572244 -0.7088954178694773 1.8747152319758507
-0.42099394636143744 -1.022072015219247 2.8337361832145227
-0.5114327469290144 -1.2682573930575922 3.813813541961632
-0.584726749735932 -1.4129115126160006 4.8153544226288965
-0.6341848163686449 -1.4245486063174528 5.828512638960301
-0.6518643297065244 -1.2873659086882472 6.833503032035777
-0.6354892058202203 -1.0070462144625694 7.808386452193619
-0.5894691657630834 -0.6036948486966399 8.738156265475816
-0.5215420430849764 -0.10138210721401684 9.617021857760363
-0.4404749360594002 0.47790803620895783 10.446006504807889
-0.35499443340821674 1.1163332942496116 11.229899671138568
-0.2731212626122774 1.8001578022188198 11.974948225803267
-0.20217320039245232 2.5183972857906207 12.688039933023694
-0.14821163960580394 3.261623829768734 13.376603473956775
-0.11496335973521528 4.020377573538101 14.049358817269464
-0.10292330268700033 4.784340741909835 14.716909583428224
-0.10944034569002609 5.542345804469396 15.391301832500773
-0.12963045214001728 6.282523733267406 16.084957363798907
-0.15797693727580658 6.9924489324644385 16.809222442082696
-0.1901678943686527 7.658514886052747 17.573944500064393
-0.22548907758788975 8.264099010706433 18.38708830816618
-0.26753214081023297 8.787953761593446 19.254977271364375
-0.32676058935475205 9.200888776784923 20.179745045965152
-0.421977435395579 9.465656904148723 21.154466207440578
-0.5784435873435474 9.541778354797145 22.153780100460533
-0.8178624771865551 9.40005922950431 23.12902702633682
-1.1468506754549848 9.039860415115621 24.01908328901637
-1.5500644367923901 8.500468584757453 24.773938356084297
-2.0141229587368046 7.820447795048049 25.38137378731509
-2.4971678205995893 7.081287621275177 25.837490553114552
-3.018853320893985 6.2628227198759605 26.178542991107538
LINES 1 65
64 0 1 2 3 4 5 6 7 8 9 10 11 12 13 14 15 16 17 18 19 20 21 22 23 24 25 26 27 28 29 30 31 32 33 34 35 36 37 38 39 40 41 42 43 44 45 46 47 48 49 50 51 52 53 54 55 56 57 58 59 60 61 62 63
POINT_DATA 64
SCALARS NodeIdx int
LOOKUP_TABLE default
0
1
2
3
4
5
6
7
8
9
10
11
12
13
14
15
16
17
18
19
20
21
22
23
24
25
26
27
28
29
30
31
32
33
34
35
36
37
38
39
40
41
42
43
44
45
46
47
48
49
50
51
52
53
54
55
56
57
58
59
60
61
62
63
