# vtk DataFile Version 2.0
Vessel Segment
ASCII
DATASET POLYDATA
POINTS 64 float
4.825810944776929 15.176182648919143 -9.025901392281897
3.93265030757773 14.77184268832215 -9.377278069833066
3.2256383858884314 14.300626738154888 -9.862044481296264
2.5877928649630566 13.719004729107246 -10.41699786582229
2.044669617680487 13.039401523563674 -10.93321271704852
1.5449639191458733 12.251334698955453 -11.331922929736184
1.0755421353318664 11.380029191383807 -11.552812751044414
0.6337504546530428 10.467683514890599 -11.587634051873856
0.22880537386644173 9.544942076244482 -11.470935842746778
-0.114033653707243 8.617109757092987 -11.24600464512336
-0.3264924543264161 7.669506945595138 -10.951812397176292
-0.24988250893899536 6.708584221681835 -10.639964142400508
0.21748532321556888 5.8457904907269675 -10.392614372559926
0.9212207281747388 5.133151936480418 -10.23145036255106
1.7008664455880773 4.495219702300094 -10.111265788456516
2.482578188990916 3.859028938763532 -9.990145844185069
3.2055026184820856 3.168850711374222 -9.83221695281629
3.7643615734547304 2.350405959563846 -9.584762563397922
3.6756927307081932 1.439038029021611 -9.185140286247046
2.894607521746792 0.9057946942599706 -8.832462529766689
1.9484251089267568 0.6684619648821054 -8.558470862174726
0.9717339013382412 0.5884497941591725 -8.29354678143291
0.011388198777792694 0.6213063831167386 -7.970341627052601
-0.8674631539382516 0.7588185226918222 -7.480667800815401
-1.4400962837214482 0.9713462643940329 -6.676114443329576
-1.5137548412037116 1.1345236271787926 -5.680509091948361
-1.3039578847992153 1.1911800520358444 -4.689892844002156
-1.0001427360602484 1.1521043868777117 -3.722648450083161
-0.6819639288497044 1.0188110963593497 -2.768625408100369
-0.3925806919327597 0.7846971436584179 -1.8248909849441395
-0.16053586146078905 0.4432673572201755 -0.8982916996782748
0.0 0.0 0.0
0.09300005878271171 -0.5199406215035965 0.8662216067286213
0.1389288989399661 -1.072939716077047 1.7155808440933649
0.16730040865365278 -1.5992966906505623 2.582517244614054
0.2114415978255281 -2.0144275459355727 3.5070018627864696
0.3007761512872004 -2.215863405030938 4.496448687190105
0.4433387892882481 -2.1455576188270657 5.497650356891839
0.6238985345178629 -1.8319240777648536 6.444963818551037
0.8192559127483129 -1.34437450665597 7.312724823020507
1.010011719087733 -0.7391707789774076 8.104214074843538
1.181854119018578 -0.05061576384473202 8.829201126916749
1.3236901349415942 0.6990113472963759 9.497913774333968
1.426980723360996 1.492040903442411 10.122286809799332
1.4855796267165091 2.311045453294065 10.718210102915666
1.4942296397886334 3.139436665663857 11.303957030263609
1.4494971249264788 3.9624370699025016 11.895549160998316
1.354140362444053 4.769552339476645 12.502821182973655
1.2224372331285331 5.554175951926636 13.13251687155971
1.0770867139407008 6.310544971209151 13.792844987649586
0.9408530976986826 7.031032163584817 14.494054630909734
0.8300708746109089 7.703001730113189 15.246087285284938
0.7502371889899235 8.307690679526779 16.056719758082426
0.6921855408006098 8.81564706802737 16.93296645697692
0.6239680681427088 9.171860248132038 17.879727190675737
0.4647684613449918 9.248801408502848 18.879282982593438
0.0950293398942645 8.871431083208526 19.738237666754117
-0.4379737419229084 8.181935783013548 20.25517652887752
-1.029957047104705 7.414633867142844 20.55429441655171
-1.6540682287656148 6.647362384147868 20.781893016553884
-2.308031431618302 5.913448970614713 21.02674031775131
-3.006025419851526 5.2634286978090055 21.39379804354861
-3.690095631627124 4.805088977841247 21.93126126915069
-4.303085525029522 4.715833345806431 22.765678624664133
LINES 1 65
64 0 1 2 3 4 5 6 7 8 9 10 11 12 13 14 15 16 17 18 19 20 21 22 23 24 25 26 27 28 29 30 31 32 33 34 35 36 37 38 39 40 41 42 43 44 45 46 47 48 49 50 51 52 53 54 55 56 57 58 59 60 61 62 63
POINT_DATA 64
SCALARS NodeIdx int
LOOKUP_TABLE default
0
1
2
3
4
5
6
7
8
9
10
11
12
13
14
15
16
17
18
19
20
21
22
23
24
25
26
27
28
29
30
31
32
33
34
35
36
37
38
39
40
41
42
43
44
45
46
47
48
49
50
51
52
53
54
55
56
57
58
59
60
61
62
63
