# vtk DataFile Version 2.0
Vessel Segment
ASCII
DATASET POLYDATA
POINTS 64 float
0.4567378157009212 10.978224543664005 -9.007377880501604
-0.10799722699147159 10.121393997383766 -9.180591707597285
-0.6262113808805976 9.324995211607582 -9.45281308740703
-1.165880627263407 8.482913038937072 -9.61065326926769
-1.6693397641939844 7.622463000395228 -9.444087632896581
-1.971252027183987 6.816328719852273 -8.914436571412354
-1.9236741143724299 6.052527349756533 -8.253812959117562
-1.502983945771332 5.293102423085824 -7.736496788216624
-0.8533870913957216 4.563415782575407 -7.46864036544639
-0.11471951972953257 3.874657490015644 -7.3765329418633305
0.6665557096534377 3.2275744374732054 -7.368288844278907
1.490650830711272 2.6360773481691795 -7.377353345515306
2.3721586206696217 2.1354241022231557 -7.350554087409936
3.3132596755012584 1.7720990464789188 -7.249771652914132
4.286018593661028 1.5483625767800338 -7.07035200529608
5.257758343805907 1.40013546487729 -6.8195755509946085
6.201437467354076 1.245589643763491 -6.4814085139411715
7.05962939152597 1.0073428469133674 -5.998957587029145
7.639926211435786 0.625976315828853 -5.2683682304433965
7.521552078772059 0.22748030571886052 -4.364429140665607
6.762561454840028 0.04106363751223247 -3.731809178997825
5.774402776546504 0.044130982852800746 -3.5232032789835306
4.778242125167797 0.17132146754918026 -3.6540813083566976
3.8308343713852255 0.3784654842057143 -3.9515648337724656
2.8982452654809907 0.6378065979762382 -4.255237887967953
1.93673769051921 0.9162869183930703 -4.412783012990847
0.96355691152467 1.1343882729738308 -4.250135426020848
0.13824967683887263 1.164017463929222 -3.672590568708236
-0.34799153205524835 0.9639926481592208 -2.8108720573804797
-0.4678322332092212 0.6339781945471891 -1.8617860543380995
-0.3074053793724191 0.28941402467915556 -0.9223194205666101
0.0 0.0 0.0
0.2916111707806069 -0.2132797025004354 0.9477707172504471
0.44966641751889425 -0.3729633870865016 1.9365330430141647
0.48955886059397463 -0.5286740382585806 2.938199587205561
0.507949286316283 -0.7117199317135573 3.9359767209693794
0.572463443215512 -0.90782683161117 4.929188460956502
0.6866340040894374 -1.055147639886675 5.926314412638549
0.7937147568354952 -1.0410780587268789 6.933833049363561
0.7872552057638702 -0.7333108756983554 7.896914214562188
0.6266468710150197 -0.1632309778501238 8.718692524683622
0.3867156746460837 0.5259745122650646 9.423201809170932
0.1441241304286726 1.261954141082864 10.07802490306772
-0.061430986063770565 2.0342840157390567 10.702879133651765
-0.22697336836153117 2.8533210136282308 11.278074830800044
-0.38199075263307886 3.716691710207735 11.787709193598243
-0.5669291093763289 4.597652479598455 12.255722729951112
-0.8062839272706857 5.459718770440368 12.73392222413009
-1.0961525365502478 6.270643017091205 13.269911479167789
-1.4039936811873683 7.016866359787568 13.884171646613442
-1.6862731129682715 7.70339016929352 14.575486507027739
-1.904010048854028 8.332926054894212 15.340330553622687
-2.0310297929438135 8.878244577332604 16.185603679496978
-2.058890567339132 9.278082303147078 17.11642615940349
-2.0157739255952674 9.48994697616651 18.10688328224279
-1.9713943995024545 9.545315884967582 19.11860858867651
-1.9918696042439947 9.507092250366506 20.13192433185208
-2.1110884411828237 9.416764440341455 21.13516333294006
-2.311129863333978 9.269036637934313 22.118598677824462
-2.5069623848073235 8.999301274273545 23.07606097252435
-2.5382218958504277 8.51366094426846 23.962926146681816
-2.3116791729181663 7.846466710051176 24.68861793979113
-1.9234935576919698 7.138808949125913 25.257194439053233
-1.4172832456150333 6.38779257298667 25.772400589283563
LINES 1 65
64 0 1 2 3 4 5 6 7 8 9 10 11 12 13 14 15 16 17 18 19 20 21 22 23 24 25 26 27 28 29 30 31 32 33 34 35 36 37 38 39 40 41 42 43 44 45 46 47 48 49 50 51 52 53 54 55 56 57 58 59 60 61 62 63
POINT_DATA 64
SCALARS NodeIdx int
LOOKUP_TABLE default
0
1
2
3
4
5
6
7
8
9
10
11
12
13
14
15
16
17
18
19
20
21
22
23
24
25
26
27
28
29
30
31
32
33
34
35
36
37
38
39
40
41
42
43
44
45
46
47
48
49
50
51
52
53
54
55
56
57
58
59
60
61
62
63
