# vtk DataFile Version 2.0
Vessel Segment
ASCII
DATASET POLYDATA
POINTS 64 float
1.8463855452228135 14.794502601333686 -9.981881282465478
1.1544789382175393 14.041238256121234 -10.196718817736496
0.684938744074848 13.259599752738328 -10.54081608549883
0.39602595642208666 12.368925305072825 -10.956214387673146
0.3151382294849631 11.421011435156746 -11.30205730552893
0.3413731467215524 10.41997500958565 -11.461820177963395
0.377925362577116 9.408166879725254 -11.40456719166221
0.3745762172654931 8.418839287991684 -11.180664047604528
0.33558253697839935 7.459232879712199 -10.853916492612324
0.3029899850623999 6.521793674582133 -10.466804368316831
0.3709571477931927 5.603304749709541 -10.041662481110567
0.7648229694161655 4.7829591559272435 -9.607878697726239
1.6052883544995629 4.331199255402353 -9.27428698049262
2.5849628121168506 4.199604911937902 -9.040999112345068
3.570850527872854 4.158099777180722 -8.806129630039154
4.5366107957728685 4.090358550640619 -8.503327906148279
5.423064390938872 3.873333476003064 -8.058720256867872
5.976188538427396 3.3270523978289304 -7.421683397018712
5.84246845145157 2.532884603493041 -6.8225197430747455
5.2005508339183395 1.8224482995532842 -6.490093344121871
4.326138980915429 1.3216823585126578 -6.384949061761352
3.3482906619015464 1.0553806010578064 -6.410465587309235
2.33728834418118 0.9892172869314111 -6.457549302208639
1.3260518029469202 1.0583766072477707 -6.41987822955995
0.3491111790056835 1.1848788378342896 -6.181164249218077
-0.484845836019589 1.273000705394361 -5.61549751659015
-0.9731572738160966 1.2381786675051945 -4.730979082366921
-1.0776681194703868 1.0931086886463677 -3.733134885740141
-0.9406229217517854 0.8874758658852631 -2.7494555259324818
-0.6771959855988922 0.6389114248295721 -1.8018153110128232
-0.35115523170128826 0.34508355410311126 -0.8870722092620175
0.0 0.0 0.0
0.35250029756280254 -0.3976296227920465 0.8642718689658949
0.6922783514511666 -0.8367617428944334 1.713409224821009
1.0140855368737987 -1.2882021712310896 2.563216501431204
1.31623379709258 -1.6991080661486302 3.4402311271192896
1.5911960321218752 -1.976457188719485 4.376429989040262
1.8090535152425324 -1.9749864854412982 5.365132839034953
1.9326833584359884 -1.6375979908563645 6.3122580504334005
1.9700605009723875 -1.0962351310539862 7.169331117719218
1.9496687189615647 -0.4794540792371978 7.974613783217793
1.8865959420491698 0.1576566138086512 8.761665888253571
1.7845945794406586 0.7993136932830266 9.540967878682714
1.6407755676712152 1.4492923506035478 10.30659216110974
1.4460619866408795 2.122118579364633 11.040519795301037
1.1884523409259127 2.8335111080399225 11.716306370133774
0.8601241813366657 3.5879422773615786 12.30958504982604
0.4690636787618007 4.374153358283088 12.817649151261746
0.041351935363518666 5.175130660620419 13.270327423167586
-0.3865274150170096 5.979283455195605 13.717177207521436
-0.776628263369945 6.776703786326207 14.208318205949231
-1.095618687950378 7.550509802378928 14.781407912923784
-1.320688191279528 8.269953440706757 15.459977493678318
-1.446277457976719 8.887695213955507 16.25426764714237
-1.4943441053545197 9.332042703087385 17.16430102594638
-1.5148678528647557 9.48819686754308 18.165023414859075
-1.5814958181332919 9.23696340444691 19.142068953880283
-1.7434464916087034 8.628583207412982 19.935684888959287
-1.9956882502827973 7.840070084885274 20.521420434796468
-2.3121220861236282 6.9893636155081555 20.974967124504527
-2.6638732289085887 6.126856154986667 21.3735602220147
-3.0105126370395414 5.2703647227718715 21.81106822111142
-3.2928796934763827 4.485037289831474 22.329914266187323
-3.31629217112466 3.8886895382593694 23.182753498227523
LINES 1 65
64 0 1 2 3 4 5 6 7 8 9 10 11 12 13 14 15 16 17 18 19 20 21 22 23 24 25 26 27 28 29 30 31 32 33 34 35 36 37 38 39 40 41 42 43 44 45 46 47 48 49 50 51 52 53 54 55 56 57 58 59 60 61 62 63
POINT_DATA 64
SCALARS NodeIdx int
LOOKUP_TABLE default
0
1
2
3
4
5
6
7
8
9
10
11
12
13
14
15
16
17
18
19
20
21
22
23
24
25
26
27
28
29
30
31
32
33
34
35
36
37
38
39
40
41
42
43
44
45
46
47
48
49
50
51
52
53
54
55
56
57
58
59
60
61
62
63
