# vtk DataFile Version 2.0
Vessel Segment
ASCII
DATASET POLYDATA
POINTS 64 float
0.7671563588494563 10.143148233242572 -10.81374019781791
0.23358542779891228 9.440243786551349 -11.364556971177315
-0.24868454373809673 8.669682453708889 -11.728591618347242
-0.6967644965290375 7.768509850756597 -11.926116758332183
-1.0268411532483994 6.813301656436395 -11.8907487048199
-1.212508252859753 5.845380385123667 -11.65044098312521
-1.243424446006143 4.912509779037947 -11.253744604669572
-1.1339586308800143 4.034047561754292 -10.758494608494862
-0.9015713612217577 3.212815551199549 -10.210162162001096
-0.5562166726418233 2.446765110828464 -9.641806409534702
-0.09457658652799018 1.739362666126701 -9.080044192350961
0.5021480826480491 1.1109000013241364 -8.552956734144573
1.2606666660747134 0.6150812797405663 -8.09784762420508
2.1707157539342674 0.3353597206533165 -7.750305077809115
3.1523550823162823 0.3038228480898442 -7.498054026727892
4.1299717981767134 0.45975866351311573 -7.276733551015609
5.076713366028845 0.7186615638440212 -7.01996354121856
5.986441228110283 1.0088460661048961 -6.677564533629763
6.848059109208916 1.2654213861345287 -6.206921159501684
7.617272787597454 1.4105643174881277 -5.564824117549153
8.168184137811284 1.3342237387128775 -4.716333422705798
8.105520910463339 0.9126779605851839 -3.806558720517283
7.3693125003337805 0.4124186391721431 -3.3223881950017815
6.439199449424951 0.04689815524785698 -3.162236947128179
5.456557653643958 -0.20500081260562808 -3.1287100275233257
4.454004028397156 -0.3598282131379507 -3.126649701312189
3.442547902571535 -0.42501066934604387 -3.082947011681108
2.4424818437708384 -0.4013763534774213 -2.915750501109181
1.5129650504311403 -0.2976993134618424 -2.5248300819761504
0.7663759088195352 -0.15644640177722446 -1.8545078243877842
0.27348870433924183 -0.04431285768151745 -0.9756745640035661
0.0 0.0 0.0
-0.12278611925805559 -0.02845393178055885 1.0065138689853224
-0.14975555109888752 -0.12035370325411644 2.016555881469923
-0.11807624568787914 -0.26042414838273503 3.0208989465517204
-0.051765679522746494 -0.43234795678802157 4.018656543667842
0.03429436055044814 -0.6185798197253698 5.01225971688866
0.1309264007190349 -0.8012559976053406 6.005616612677352
0.2327591014758012 -0.9628332256198205 7.002076919457362
0.3363132916014978 -1.0876873054061815 8.00362438532714
0.4371782129265347 -1.1616994022807547 9.010407078283384
0.5277155381595311 -1.1714559526102735 10.020869185466301
0.5960415042093181 -1.10423688000664 11.030884014214823
0.6268631438011909 -0.9495214010717153 12.033057225075572
0.6024813855387428 -0.7013639541257447 13.016382489929219
0.5052894572126778 -0.36013303810937297 13.966741834376693
0.3217400907442384 0.06869532031297994 14.867576765474688
0.04916852378043218 0.5779360745525917 15.701484548290725
-0.30066797147287544 1.1610182241368172 16.45434550538612
-0.7041787641044075 1.8123787641513245 17.119256062066995
-1.131629736317467 2.5262182031129403 17.69965942550521
-1.5545203299596775 3.2951557581523367 18.208828152104918
-1.949588910256658 4.1087214083222605 18.668574401662205
-2.3018003795047726 4.9527243235923875 19.10783564384559
-2.603638713096579 5.808546952808454 19.561501807605655
-2.8514594572906127 6.652726763735416 20.066713933968586
-3.0431103872202296 7.455063994495139 20.65715261448441
-3.1803172718837494 8.178978728451725 21.35432890243101
-3.2752833278602025 8.789931906401696 22.158320131069488
-3.355631348390807 9.264967220377496 23.0514791629064
-3.4566550099367115 9.590303795743782 24.004246278052587
-3.6307395896955903 9.741046496808266 25.003335706156008
-3.887736982554199 9.717469514095582 25.948858818076634
-4.3027401080714 9.478154073152929 26.871849872080457
LINES 1 65
64 0 1 2 3 4 5 6 7 8 9 10 11 12 13 14 15 16 17 18 19 20 21 22 23 24 25 26 27 28 29 30 31 32 33 34 35 36 37 38 39 40 41 42 43 44 45 46 47 48 49 50 51 52 53 54 55 56 57 58 59 60 61 62 63
POINT_DATA 64
SCALARS NodeIdx int
LOOKUP_TABLE default
0
1
2
3
4
5
6
7
8
9
10
11
12
13
14
15
16
17
18
19
20
21
22
23
24
25
26
27
28
29
30
31
32
33
34
35
36
37
38
39
40
41
42
43
44
45
46
47
48
49
50
51
52
53
54
55
56
57
58
59
60
61
62
63
