# vtk DataFile Version 2.0
Vessel Segment
ASCII
DATASET POLYDATA
POINTS 64 float
2.3119611391467343 6.516806987596788 -5.206232652580694
1.5709285729844378 6.076677478665177 -5.761275140854466
0.9522209114266602 5.5362563837892385 -6.339198588278517
0.40414569209223655 4.870472714006539 -6.8695417511264365
-0.08347859582625607 4.072504129035147 -7.258619461582548
-0.5233671298066689 3.1717535450619163 -7.39587860332964
-0.9301046029068957 2.266084425819376 -7.20312327761065
-1.309337315347698 1.453224542086914 -6.732505909098856
-1.6511112664458722 0.7337866945402907 -6.104750949731804
-1.8948923638369393 0.0289394977527745 -5.418034823544095
-1.8364010685914536 -0.7485006831600699 -4.779171987755184
-1.2595475495596269 -1.4646546136624563 -4.3740493393122835
-0.4002639961899496 -1.9488758829291504 -4.144545125662484
0.5413228532119241 -2.2457655187193666 -3.9143373926962117
1.491336257212798 -2.396710237339249 -3.594505636890803
2.405111898534526 -2.4104903685911214 -3.1561120179367954
3.26600264001159 -2.2719523497646676 -2.638978517966635
4.10489904546895 -1.972842240720749 -2.154850963236675
4.956713549678671 -1.5566290830986718 -1.7953888255178643
5.816016502032381 -1.0841196508250825 -1.5357785464126803
6.653788652296451 -0.5689560563284641 -1.2884127288780562
7.343380202866939 0.04759873604052487 -0.8799926289015113
6.79645294187894 0.3526462240382062 -0.2503068763153578
5.837352174803373 0.16672586653574814 -0.006801516859213619
4.884319277277676 -0.17554004309175553 0.021605947347618674
3.9917540343971942 -0.6075207372348856 -0.18319616985056875
3.1896934323266635 -1.0221169186614234 -0.641698826974536
2.4104311704183488 -1.2527973216506616 -1.2455875698999295
1.5159696635229125 -1.1560376663680065 -1.697031721370477
0.602064020554881 -0.7546280684827306 -1.6212333627119484
0.013758677539049467 -0.287743821537055 -0.9600205728386043
0.0 0.0 0.0
0.4318868407856331 0.03533078520994449 0.9130329575949641
1.0227299823820395 -0.10021638432551537 1.7258423916134202
1.5885023263452014 -0.3354889338820202 2.5339556272317116
1.9821688211853772 -0.6090927367411996 3.4259438530649162
2.1196731791539976 -0.8391502058735714 4.402353811334537
2.038729733764758 -0.9450824441505566 5.406433437738912
1.8025263753549772 -0.8306655155473203 6.38363550989557
1.4655101110404896 -0.3787236425158282 7.2205532266612265
1.1189226114690016 0.37663956569363816 7.796819873052632
0.8181325598361917 1.271530343918352 8.16626420131409
0.5515172755018154 2.211087835283334 8.440804841672799
0.28585741636202294 3.1598204629715934 8.683159246894153
-0.011117331744757826 4.103951397467491 8.906053577535339
-0.3510747547420606 5.040616287155766 9.096728581593567
-0.7158801425507569 5.971598270449229 9.268823014542589
-1.0784779935763165 6.893266947418219 9.48786764544353
-1.4249668927016368 7.7722341924302345 9.854157176302376
-1.7578296759191108 8.508018734328514 10.462634638183282
-2.0783702518870997 8.951274246034549 11.3117282604287
-2.3664059937049218 9.050431584190404 12.276520595937251
-2.5974471051678507 8.882446661245645 13.248502008061745
-2.7550654686995446 8.543103172015817 14.190924743200371
-2.8271212618187986 8.104981547870896 15.10275483549414
-2.808878382178701 7.622036775843699 15.99458112416732
-2.7186795816984666 7.135128619780301 16.880106545701057
-2.594980938690688 6.669420094669056 17.77291437948392
-2.4637941438532693 6.232463413185809 18.679124332381434
-2.3201072883301026 5.809358903091923 19.589993754153994
-2.1326505303782093 5.36117599344548 20.480438058334556
-1.854126464080742 4.833020504528755 21.29795253340666
-1.4472425110502807 4.186869265098538 21.948675296277745
-0.906032057526126 3.4186426370332286 22.354421450253373
LINES 1 65
64 0 1 2 3 4 5 6 7 8 9 10 11 12 13 14 15 16 17 18 19 20 21 22 23 24 25 26 27 28 29 30 31 32 33 34 35 36 37 38 39 40 41 42 43 44 45 46 47 48 49 50 51 52 53 54 55 56 57 58 59 60 61 62 63
POINT_DATA 64
SCALARS NodeIdx int
LOOKUP_TABLE default
0
1
2
3
4
5
6
7
8
9
10
11
12
13
14
15
16
17
18
19
20
21
22
23
24
25
26
27
28
29
30
31
32
33
34
35
36
37
38
39
40
41
42
43
44
45
46
47
48
49
50
51
52
53
54
55
56
57
58
59
60
61
62
63
