# vtk DataFile Version 2.0
Vessel Segment
ASCII
DATASET POLYDATA
POINTS 64 float
0.6281512928351671 12.696191055343776 -7.602902951556852
0.07995670804186028 11.821556369338769 -7.703042609418292
-0.28492130184069503 10.920337220116279 -7.903026728179765
-0.5208344626493046 9.965269378158807 -8.142817385833675
-0.6561399912390955 8.98077870160914 -8.346995278336676
-0.7383696596179739 7.973899057280521 -8.434345843831546
-0.8110932483375356 6.967817981726235 -8.335631946251704
-0.885851253705858 6.001693970643827 -8.037956548009076
-0.926039916349159 5.091559046684498 -7.592432809569845
-0.8563342316059754 4.22236465617913 -7.074941004968992
-0.592093836656873 3.386122503610433 -6.567533485472579
-0.0986135829068798 2.6081066181129846 -6.146605016244988
0.5841622221719547 1.922480504091333 -5.845541538176009
1.3994840014086172 1.3512466887927579 -5.654484797166581
2.3116701266975856 0.9235777654066571 -5.542474610995411
3.294822218342623 0.6912014030672632 -5.464120378097173
4.301831106047424 0.6974804240532818 -5.35413165137854
5.269836509237988 0.9092468616267955 -5.141604347904182
6.158167034577799 1.230513942319233 -4.774257196596941
6.936072126184513 1.5495484282600198 -4.20951607112832
7.5079096877228375 1.7190728187643283 -3.395255313906435
7.529286341622121 1.4772709446122791 -2.4365523129358455
6.910930303944668 0.8940859251052902 -1.9010494630196728
6.0900973336728965 0.31100139839946683 -1.7994713359794834
5.212212387995336 -0.18091908722101205 -1.9221755198196224
4.296648259309085 -0.5563316209779415 -2.144043099049874
3.3371171193294775 -0.794470749748399 -2.369092863500132
2.333934742605456 -0.8684633801880318 -2.489559005579894
1.3376551183573964 -0.7557350144706285 -2.3600004147676086
0.513944743159982 -0.48894594620552306 -1.8442510784383728
0.06324240542979843 -0.19979664641596454 -0.9895168345137944
0.0 0.0 0.0
0.21822880839436642 0.09672644939466372 0.9845781888426035
0.617798280099998 0.12141646333990638 1.9162086389129762
1.1215505471476064 0.11790599668196043 2.796739100881236
1.6600094558939456 0.14122257689776635 3.65621826626731
2.1377329660171274 0.27525128148634126 4.5399356517637335
2.3937461250736907 0.6277433150739058 5.4517343543832855
2.3306980875703207 1.198987925378647 6.283827456183556
2.0519160506637157 1.883054244326782 6.977889214252034
1.6771836641946487 2.625524136178246 7.558378475479358
1.2717649864748273 3.416913700372264 8.04648457938987
0.8704303135947753 4.258184337497922 8.44660388261129
0.494026659854001 5.146875860487299 8.758765610483596
0.15026699860614437 6.072185101450704 8.99271421200482
-0.17047104211289815 7.016104908659736 9.181302285711396
-0.49276382199307023 7.956050285873309 9.385938982635983
-0.8465039032425941 8.855535814557102 9.692251550840556
-1.2478565600485398 9.639244860643865 10.192120625348723
-1.6722996733209137 10.196595814095373 10.92178859185343
-2.0591954727419113 10.456777230518426 11.819771434181941
-2.3552677510098876 10.426397667221659 12.787533052972286
-2.5369960155304603 10.153326777253179 13.746001037111157
-2.6110915014447516 9.698866958983977 14.649101527504197
-2.60724883515845 9.124213589770891 15.48485738528549
-2.5632522889420275 8.481464541423913 16.26852415840817
-2.5127244408105898 7.812297488281042 17.02953907812548
-2.475438276077808 7.1495925181089 17.7967761780361
-2.4475443132592702 6.517134838572427 18.589688524553832
-2.3962403650409607 5.928105943640407 19.41403850219988
-2.2614465316148817 5.386465509455816 20.260999946872044
-1.9732745083958572 4.895912596747102 21.09802650883104
-1.5005503968654832 4.469447896329927 21.859101141588365
-0.8111910885473888 4.088761064356275 22.53407171722491
LINES 1 65
64 0 1 2 3 4 5 6 7 8 9 10 11 12 13 14 15 16 17 18 19 20 21 22 23 24 25 26 27 28 29 30 31 32 33 34 35 36 37 38 39 40 41 42 43 44 45 46 47 48 49 50 51 52 53 54 55 56 57 58 59 60 61 62 63
POINT_DATA 64
SCALARS NodeIdx int
LOOKUP_TABLE default
0
1
2
3
4
5
6
7
8
9
10
11
12
13
14
15
16
17
18
19
20
21
22
23
24
25
26
27
28
29
30
31
32
33
34
35
36
37
38
39
40
41
42
43
44
45
46
47
48
49
50
51
52
53
54
55
56
57
58
59
60
61
62
63
