# vtk DataFile Version 2.0
Vessel Segment
ASCII
DATASET POLYDATA
POINTS 64 float
2.3712926626343362 15.067006507923123 -11.203865946391197
1.9503116586995068 14.197348512309382 -11.611408968446254
1.525394079607878 13.364843083239359 -11.8823617293085
1.0911169057902184 12.456944842926108 -12.060287835028353
0.7126091682319169 11.51800309498518 -12.117592139060397
0.40801966775000664 10.551712738423964 -12.071792297492701
0.16899382772240404 9.572977033089352 -11.952416842122787
-0.021556514274657344 8.588973073489488 -11.794961398739067
-0.16122368810641638 7.596904692504763 -11.634980503649803
-0.20996829873337042 6.591958642516745 -11.506318691965875
-0.08590150880617314 5.588543458512527 -11.433443958043934
0.3000206321643982 4.652370558441575 -11.407944630378374
0.9428024026693117 3.86999558742762 -11.371401078946025
1.7529080476724712 3.2702390938537134 -11.263245744291108
2.6458489943396564 2.836005921845679 -11.05748461371904
3.5666929865736052 2.543672377783612 -10.749783764114408
4.4784025797278915 2.3769130179943385 -10.336736177277293
5.333542890671089 2.335837222875752 -9.792177013150358
5.908855498446808 2.481276594190724 -8.97939265628932
5.438135151383291 2.763353281330636 -8.19848300190032
4.50590745011035 2.9375414337446153 -7.817061914524309
3.537873061103061 3.041784198785998 -7.52814668828739
2.5729086744370977 3.0868348265647283 -7.21987129154028
1.6466423298974495 3.058104154929801 -6.80807363894335
0.8414639488800146 2.9231671272150077 -6.208497791213406
0.28162354476160656 2.664126524244928 -5.40597366125352
-0.007687011331389162 2.3131955490165637 -4.499967057382754
-0.1183860079775488 1.9078618075145508 -3.5767635698204088
-0.1345488665044398 1.4645309488449125 -2.6644192947396697
-0.10544294612363592 0.9906750262403734 -1.7677137763700133
-0.05697161021468668 0.49633846042661395 -0.8830135876141596
0.0 0.0 0.0
0.06507360476722392 -0.466431068611086 0.898597230220236
0.14440912298612346 -0.853431318189666 1.8329192294314387
0.24382366319193333 -1.0959177013230517 2.812541054959249
0.35980345506312095 -1.1313329671693892 3.818929681686652
0.4750722500323248 -0.9350981702750081 4.806756317810013
0.5672697203472149 -0.5339896660817012 5.7333878776997755
0.6211888429451486 0.02089670425676619 6.5806075835748095
0.6318481174447493 0.6821120735037998 7.349777360677876
0.6004399529127694 1.415384567105542 8.050097184428799
0.5306812232728607 2.1968955840782014 8.69322105472289
0.42586236585146403 3.0097174077401467 9.29127387566981
0.2873927180732014 3.838761454302945 9.859478558959099
0.11482387936595218 4.669024349033471 10.416483929242482
-0.09250468711344167 5.482321995917521 10.986480332042674
-0.33326819886926184 6.255541780556065 11.597510266612892
-0.6021155392402266 6.955727818505392 12.280381517840459
-0.8882402789005877 7.533615712904589 13.063018175244784
-1.1722770540815888 7.924424413800185 13.954068868633238
-1.4282673327734163 8.07315317201681 14.923184586301257
-1.6347686853254624 7.97362748144005 15.91061557891457
-1.782605983736142 7.666951655429703 16.86569357190997
-1.8727960640437313 7.208259931561025 17.76576188071171
-1.9103149995322963 6.645495798116294 18.608967015789876
-1.9006513813457426 6.013908207644189 19.402788725462294
-1.848704276547774 5.338378285055814 20.157893734335254
-1.7586339351525535 4.637337100061219 20.885801187787656
-1.6341276559843692 3.9254613177902984 21.59797242657605
-1.4799188697813563 3.214292892047169 22.30469758401969
-1.3027548477455009 2.510350809799502 23.013076404304496
-1.1102771137389755 1.810561154450703 23.73342811211406
-0.923077097561385 1.1534353725446902 24.42596920780124
-0.7277816993155227 0.45467280607316884 25.183374431562797
LINES 1 65
64 0 1 2 3 4 5 6 7 8 9 10 11 12 13 14 15 16 17 18 19 20 21 22 23 24 25 26 27 28 29 30 31 32 33 34 35 36 37 38 39 40 41 42 43 44 45 46 47 48 49 50 51 52 53 54 55 56 57 58 59 60 61 62 63
POINT_DATA 64
SCALARS NodeIdx int
LOOKUP_TABLE default
0
1
2
3
4
5
6
7
8
9
10
11
12
13
14
15
16
17
18
19
20
21
22
23
24
25
26
27
28
29
30
31
32
33
34
35
36
37
38
39
40
41
42
43
44
45
46
47
48
49
50
51
52
53
54
55
56
57
58
59
60
61
62
63
