# vtk DataFile Version 2.0
Vessel Segment
ASCII
DATASET POLYDATA
POINTS 64 float
-1.8419678653794966 9.149006191484718 -7.84219329689775
-2.223617976266058 8.325676573344904 -8.322265311249653
-2.632559517160332 7.431273937843283 -8.507684271595362
-3.005308379717309 6.491222751176935 -8.472822824076593
-3.262950997951811 5.54132165388369 -8.234258888018367
-3.299384958603947 4.630624906283019 -7.796067688498494
-3.0176079446991078 3.860499506658014 -7.2061469546412
-2.4562496930232434 3.2945449163772267 -6.582098431625428
-1.7289520482527525 2.8811764784007323 -6.009611464135164
-0.9004857024909729 2.5562154112618445 -5.523491718471078
0.004952286215738635 2.300975347397771 -5.145204243658898
0.9740674835393688 2.147179319456155 -4.891142751260151
1.9780318990113543 2.1720569086132464 -4.759291670750282
2.9468217014085543 2.459749451127719 -4.703598533096604
3.8011811130301503 3.0002289619067852 -4.640893599679069
4.529081057114457 3.693437844209648 -4.509050214635898
5.160774723427705 4.453508889496837 -4.281791263058604
5.713046881401879 5.228676902138478 -3.9323685791864316
6.158989931742246 5.959518973996214 -3.3931663328689394
6.325439058338535 6.412279405291666 -2.521914916657891
6.011841777382656 6.140859759104071 -1.6167069913429561
5.543744611400183 5.481128402834918 -1.0091165207842816
5.069076479962354 4.693745937694907 -0.5816110311690842
4.610929160999242 3.843700416315819 -0.2714471489750529
4.169400183875368 2.9510361810526393 -0.08054957049742834
3.7336252222365336 2.037155607708776 -0.09442693783210564
3.298041304963677 1.1931940158336938 -0.43935659996878
2.841168134736586 0.5132806540915364 -1.0358981712346031
2.214868757337364 -0.03974276840744418 -1.604308185847241
1.2837142932346908 -0.3220792254420691 -1.5089132725501893
0.5487938465175356 -0.2395241917900794 -0.8181383455016793
0.0 0.0 0.0
-0.43309748822549105 0.3498998965664295 0.847472909333036
-0.7587121966058473 0.8181135656983102 1.6855953688312946
-0.922965690769173 1.4333468838853631 2.472819535726259
-0.775390850513405 2.189304256324081 3.1239997674745235
-0.19616236636648443 2.8937967794260926 3.5529851975195177
0.6659946398329266 3.3214314831446794 3.862862612298319
1.6060585818241009 3.4281602444042583 4.2211188356413265
2.467806463255173 3.2622844877785457 4.724653576846845
3.12948889149138 2.9125382068879486 5.405197963147537
3.5097320808544 2.4928173801046634 6.243395261470106
3.5801974758339012 2.1184391206034863 7.1806652367290775
3.3620596777803105 1.8771596146119243 8.138887084117748
2.9133428393060066 1.8225608324360538 9.044621397813886
2.30947916993214 1.9749722983429723 9.843084263020414
1.6179808060549512 2.315061386897225 10.500870804908141
0.8836674911396456 2.7926772987983743 11.011015006352789
0.14095228292262948 3.364962957976775 11.397497283570313
-0.5817635339074744 4.005157113446559 11.708821964403294
-1.2697792290331276 4.689321927007663 12.005142996473268
-1.9250459137077456 5.388020465360686 12.33934201001736
-2.5509119699665734 6.078020848709571 12.740851633720492
-3.1416575344844735 6.75203009993909 13.215997650466804
-3.6864426575004705 7.412478923619993 13.760127313835142
-4.174614709692966 8.05941965589683 14.37008393554716
-4.594081265772743 8.676454563220632 15.057042772779024
-4.920115588209414 9.210413632163261 15.854182114702306
-5.089684379451118 9.517255615800531 16.801041194441503
-5.020741666209842 9.37374033703846 17.79404938694896
-4.778885312790345 8.845672621412621 18.622181737312587
-4.475758403582266 8.15085704157258 19.292706568101856
-4.160012120341512 7.395516790340539 19.868365502596017
-3.839721337410661 6.586291560304899 20.419676964262923
LINES 1 65
64 0 1 2 3 4 5 6 7 8 9 10 11 12 13 14 15 16 17 18 19 20 21 22 23 24 25 26 27 28 29 30 31 32 33 34 35 36 37 38 39 40 41 42 43 44 45 46 47 48 49 50 51 52 53 54 55 56 57 58 59 60 61 62 63
POINT_DATA 64
SCALARS NodeIdx int
LOOKUP_TABLE default
0
1
2
3
4
5
6
7
8
9
10
11
12
13
14
15
16
17
18
19
20
21
22
23
24
25
26
27
28
29
30
31
32
33
34
35
36
37
38
39
40
41
42
43
44
45
46
47
48
49
50
51
52
53
54
55
56
57
58
59
60
61
62
63
