# vtk DataFile Version 2.0
Vessel Segment
ASCII
DATASET POLYDATA
POINTS 64 float
4.283716297308689 19.273689789917444 -13.221934829457213
3.862401909245303 18.411829975801748 -13.593526276304098
3.5153218134162394 17.57391283055336 -13.999759276094231
3.1883515078261886 16.711611325674948 -14.443371231878023
2.8509068610212744 15.861867676556228 -14.879792126317739
2.366111555858704 15.025688168741615 -15.180509011075735
1.7131668679931906 14.260109192406356 -15.078846720844695
1.1718583671847227 13.484527996344271 -14.70874657435687
0.8091904441250567 12.590662590657772 -14.394856444659455
0.5664221798012433 11.629607998275322 -14.178739123410022
0.4215178067952384 10.63690985069233 -14.02713745688548
0.3862279940805972 9.632545711108051 -13.888215051119392
0.5036988672552689 8.642407795966271 -13.700755107028556
0.8233710895863355 7.727277203363513 -13.402580221712983
1.3347609131022424 6.966441387985369 -12.969050334597945
1.957233882815914 6.382430680670831 -12.420867535351531
2.609140901364872 5.945815803258734 -11.777727057750678
3.219142944643368 5.626715233102511 -11.032179814157368
3.6441202825973704 5.415858099466869 -10.135405339780455
3.504659780925725 5.341362674137611 -9.14665196310164
2.795421932474762 5.346995988467138 -8.408269003124785
2.00020056920111 5.304496839816001 -7.784869840706341
1.2716936130093976 5.168588911125569 -7.090779135300689
0.7312421351181353 4.912301548718603 -6.27266254760308
0.43467773694424516 4.53900218120502 -5.377522365596024
0.32580199660353043 4.066431360966772 -4.486215520364267
0.3072014635791407 3.503991517751319 -3.6420604997886166
0.3058628914299982 2.859809425870572 -2.858248901690499
0.278628383996375 2.1537123639064144 -2.1301983614353523
0.21036543120024628 1.4174116647583292 -1.4354900691728745
0.1096988306360045 0.6874677400684552 -0.738070424593749
0.0 0.0 0.0
-0.09068804651873012 -0.6125757031145955 0.803691659248449
-0.14060192669326482 -1.126041372842816 1.677211005075629
-0.13916952003794458 -1.5256362918618505 2.6097359232856037
-0.08644162027812186 -1.8009068625743685 3.584710004086651
0.010859320160019907 -1.9384135819183175 4.58514268542147
0.14134633505752803 -1.9209531804049125 5.591053268485264
0.2887825491746852 -1.73467785797123 6.577260561988983
0.4346432263355995 -1.382916400335464 7.517534327752145
0.5622273718310988 -0.8894182239282602 8.394680687198239
0.6612421064559183 -0.288891157283634 9.206419533660178
0.7280093822596089 0.3868036695747163 9.960312476562079
0.7638560656163801 1.1139183419844307 10.666976684501506
0.7725151558403641 1.8770099174211652 11.335589170336023
0.7587483822549907 2.665840537785229 11.97349575245683
0.7260514614325462 3.4722077649779237 12.588479742796304
0.6748380239665205 4.286047342511488 13.19217041269501
0.6002321222276733 5.094341549686904 13.800857875220894
0.49334942327732323 5.880312303236673 14.433449547502768
0.3459525123090775 6.624807518244104 15.106818403453381
0.1563237778924935 7.3046720919347905 15.835631209082138
-0.06796565162008132 7.887999185136746 16.63481104273855
-0.31146278003936095 8.324015209084866 17.517860976739595
-0.5553703760683926 8.54090698437284 18.478064243480674
-0.7873702555035526 8.480370610991125 19.463209411769622
-1.0134016483689012 8.150441883556832 20.39537119999993
-1.2564907728996262 7.618555793867285 21.22445555510413
-1.5477471504859381 6.962009664346906 21.940536588677837
-1.9250500129539052 6.253399148929342 22.56192224138591
-2.4291299528179167 5.582674864737315 23.128494168832177
-3.0746654914546236 5.096207910345881 23.75352729458453
-3.7082475625222266 4.903041916066127 24.494382447945394
-4.208146396181669 4.929022353870818 25.39313503298081
LINES 1 65
64 0 1 2 3 4 5 6 7 8 9 10 11 12 13 14 15 16 17 18 19 20 21 22 23 24 25 26 27 28 29 30 31 32 33 34 35 36 37 38 39 40 41 42 43 44 45 46 47 48 49 50 51 52 53 54 55 56 57 58 59 60 61 62 63
POINT_DATA 64
SCALARS NodeIdx int
LOOKUP_TABLE default
0
1
2
3
4
5
6
7
8
9
10
11
12
13
14
15
16
17
18
19
20
21
22
23
24
25
26
27
28
29
30
31
32
33
34
35
36
37
38
39
40
41
42
43
44
45
46
47
48
49
50
51
52
53
54
55
56
57
58
59
60
61
62
63
