# vtk DataFile Version 2.0
Vessel Segment
ASCII
DATASET POLYDATA
POINTS 64 float
3.431895202828321 12.515754782858785 -8.239856676014279
2.7166121495865614 11.984365141359014 -8.78206967281489
2.0429818787567013 11.460034160101182 -9.275879211005474
1.3715245805892293 10.843508490890288 -9.718822825339112
0.7568175645181469 10.09875878656751 -10.027165335643566
0.2543456001489832 9.224745358072404 -10.122133465987144
-0.1190892039602177 8.289956082656136 -10.003400916670705
-0.40497224079814165 7.348465090711857 -9.756761190105122
-0.638990154658268 6.4002790883588645 -9.48202948287159
-0.784276864737781 5.420468241209433 -9.264918978872746
-0.6832195479505119 4.420752862174658 -9.148750350000691
-0.24281952392773226 3.5128266092745606 -9.069929526696116
0.4073129665896364 2.7494794394450843 -8.922110429033593
1.1596002090193946 2.125835840812545 -8.652861949622666
1.972737867109591 1.6682419385270715 -8.257334014219396
2.831231248318889 1.42147935327137 -7.778777814580369
3.720322199270884 1.4122316913527286 -7.292686717566093
4.59834816366795 1.6480366135101174 -6.852931673706215
5.333588908491146 2.18059680779497 -6.418659251898475
4.903723851378805 2.7503425540887227 -5.835071636013234
3.9507424431352733 2.8411606282460804 -5.470672621904735
2.9654918773970977 2.8921977796109393 -5.228397476032731
1.9638444128001007 2.984834481785433 -5.100333499951365
0.9603862838558294 3.1214789427359895 -5.039561198069418
-0.036557298139775256 3.2109283285986328 -4.881477032822643
-0.9074050188889664 3.081427888659788 -4.392650585720201
-1.4451124803241464 2.7103751407318772 -3.621894613612936
-1.660016038570189 2.2139764381349654 -2.7660182446383605
-1.5940652274104055 1.6549104530457746 -1.9241329730508554
-1.2539615411212008 1.0726704546508814 -1.1686432134185645
-0.6868566265915874 0.5119070150242614 -0.5434200370965072
0.0 0.0 0.0
0.6980642048301293 -0.4500261325844066 0.5821448394162865
1.2920593733556858 -0.7924519484697459 1.3270799541830618
1.6560577603914526 -0.9321088038099792 2.259743479148313
1.7617085965137924 -0.8083224380200479 3.258392542439849
1.6792817910480486 -0.4330244253118339 4.195216938946177
1.4880186844854932 0.15374578736242564 4.998695126280066
1.2585717784739852 0.8991018834554771 5.646253402342303
1.0507959604049169 1.7487018823025395 6.15957443756533
0.9038898635138504 2.6568273794683304 6.586968492794254
0.8186775513064644 3.590957282349434 6.973503577532512
0.754692485380008 4.533466529236556 7.343683704126927
0.6519003442272523 5.473662095506774 7.710624274500638
0.4519603474937103 6.389309985104312 8.098225112794808
0.12032798266209838 7.23056573001748 8.556232345668022
-0.32184068563031365 7.930956108882884 9.139938902614206
-0.7993523445435039 8.449299059090619 9.868086797505468
-1.232120731334322 8.777750674708933 10.723486408583502
-1.5578449998034083 8.900884134529083 11.674711361439048
-1.742401161947991 8.78891975155196 12.664189973054757
-1.818346638750349 8.454772081088885 13.61810074630241
-1.8690731485425351 7.9525829967502055 14.497471124226257
-1.9686319747503642 7.325776328929736 15.28828811566189
-2.1436694626863795 6.596730027377224 15.970944786672694
-2.354622731991876 5.776673189812911 16.528918693637817
-2.4935032366266885 4.876570133963828 16.974453366028637
-2.4193952719744685 3.9418975951934003 17.357465569870737
-2.071169936469836 3.0767028817692217 17.751963783483056
-1.5272372481454835 2.3588399062560517 18.216709858610542
-0.8964450418124014 1.7918485440421699 18.77312825908364
-0.25551931119538335 1.339303358835783 19.414887104699165
0.33293029669593105 0.9625150304281683 20.111478851976177
0.8448851622606612 0.5729244574755911 20.931623760220557
LINES 1 65
64 0 1 2 3 4 5 6 7 8 9 10 11 12 13 14 15 16 17 18 19 20 21 22 23 24 25 26 27 28 29 30 31 32 33 34 35 36 37 38 39 40 41 42 43 44 45 46 47 48 49 50 51 52 53 54 55 56 57 58 59 60 61 62 63
POINT_DATA 64
SCALARS NodeIdx int
LOOKUP_TABLE default
0
1
2
3
4
5
6
7
8
9
10
11
12
13
14
15
16
17
18
19
20
21
22
23
24
25
26
27
28
29
30
31
32
33
34
35
36
37
38
39
40
41
42
43
44
45
46
47
48
49
50
51
52
53
54
55
56
57
58
59
60
61
62
63
