# vtk DataFile Version 2.0
Vessel Segment
ASCII
DATASET POLYDATA
POINTS 64 float
-3.1364043436633637 9.45716777919054 -5.646134857315172
-3.2357408938846914 8.444183836393545 -5.816112015537677
-3.380840346389611 7.471919378756259 -5.994087837368655
-3.4994987883864423 6.480172993909254 -6.160389826338973
-3.5354299984185147 5.474969549857266 -6.289916385318842
-3.418141639438752 4.470117089192508 -6.349036020747921
-3.0617556142233213 3.524907861237766 -6.293065422735814
-2.4468284038797585 2.7458400281835496 -6.097040257790699
-1.6775502857915463 2.1604045961967713 -5.79271098404984
-0.8451213339593252 1.7030668135334779 -5.436701815808656
0.0529882025714245 1.3612562251547389 -5.114708585204322
1.0476084906945586 1.3438738830765187 -4.9593922430945465
1.960710323250661 1.7755792085443618 -4.924133152893272
2.6893920850801964 2.4770130875950906 -4.8752688218421225
3.236214405520185 3.3250281719369306 -4.78058254858627
3.6273506339173958 4.249130959790381 -4.635060221848267
3.9022554213836886 5.204039307781013 -4.4318495371137905
4.104321252906628 6.157379946936799 -4.150750231187639
4.259416373962449 7.06898947890961 -3.7361442885232634
4.333041473517308 7.800159184001441 -3.046921449391621
4.1917978372619915 7.811553160143922 -2.0737849903854895
3.9747485186056073 7.129843981095531 -1.3617006487669108
3.821776303000795 6.218370768006947 -0.9486056491018655
3.71430950879808 5.224403366121349 -0.7853107519459092
3.580963771046965 4.222454846099234 -0.8548451829354049
3.344082984978629 3.2712289208813266 -1.1118568760517242
2.9635766382584032 2.4007880050002472 -1.4658206067038388
2.435086077473263 1.6057345777454537 -1.8070233757620524
1.7600854368871723 0.8721629321683655 -1.9812404889388955
1.004095129765724 0.27763909736114967 -1.698980855332023
0.4174089059158938 0.013659709107875425 -0.9233751184066932
0.0 0.0 0.0
-0.355277270523243 0.13817617555251896 0.939664274417141
-0.6635449279441865 0.4438684623267552 1.8546963405975307
-0.7206133840679013 1.1007221347497498 2.6005482286421318
-0.22232571486297256 1.9540679475530824 2.7931300564053005
0.48781218638826435 2.6772460116217327 2.7650859059166755
1.281579255505678 3.3084583226869646 2.759089506967837
2.127934895017291 3.8523969853410946 2.8812694802024272
2.9799385870294635 4.264169275168038 3.238678921937952
3.694361712498507 4.440734097206941 3.926474443805609
4.072848936981949 4.344605187000826 4.856905290667584
4.1094490029200905 4.115161417070609 5.842235895778463
3.916850821795431 3.9033271281827724 6.814598286920924
3.591093642057195 3.8137292529292943 7.7702761075999485
3.2009864974152125 3.9131014950988354 8.700299537694052
2.7684475549744096 4.1972219440288 9.572001646338803
2.2553432879285493 4.6015120620952175 10.347230400731007
1.6166268067360907 5.0509931347448145 10.99325069347878
0.8530860465082367 5.481516049448039 11.50262634578768
0.0038194416145314737 5.860311661834575 11.907610035710928
-0.8907853803992566 6.1874683749347055 12.25666264012439
-1.8022730176544282 6.483247773613478 12.590009740673532
-2.70877512711068 6.7766900437387605 12.938547988746675
-3.583504673283977 7.0978883417891705 13.339270044207419
-4.376929539203702 7.468799085715621 13.849452213581337
-4.997892437452168 7.879639758418427 14.535022515321486
-5.342194729180402 8.258503212942756 15.40707400390851
-5.402668674477524 8.508880372506281 16.38598416809283
-5.279046883076872 8.590130815589074 17.388563498689
-5.067431521092731 8.509841339360475 18.376819942581438
-4.815954106163888 8.282518172340406 19.330699754504547
-4.5410113496512094 7.910655766672755 20.216314260733043
-4.216004089958446 7.332498058494895 21.00436590001651
LINES 1 65
64 0 1 2 3 4 5 6 7 8 9 10 11 12 13 14 15 16 17 18 19 20 21 22 23 24 25 26 27 28 29 30 31 32 33 34 35 36 37 38 39 40 41 42 43 44 45 46 47 48 49 50 51 52 53 54 55 56 57 58 59 60 61 62 63
POINT_DATA 64
SCALARS NodeIdx int
LOOKUP_TABLE default
0
1
2
3
4
5
6
7
8
9
10
11
12
13
14
15
16
17
18
19
20
21
22
23
24
25
26
27
28
29
30
31
32
33
34
35
36
37
38
39
40
41
42
43
44
45
46
47
48
49
50
51
52
53
54
55
56
57
58
59
60
61
62
63
