# vtk DataFile Version 2.0
Vessel Segment
ASCII
DATASET POLYDATA
POINTS 64 float
4.885025776109369 10.513086459029083 -8.962745016729519
3.9442320240313147 10.620790410852868 -9.389445250612706
3.045583508540146 10.478211710826143 -9.780402453959233
2.173811831259161 10.114011859573168 -10.143070699903905
1.389846681749174 9.543038599754237 -10.437197964191302
0.7229624029163351 8.801066584459836 -10.614383610833977
0.18287954603185896 7.943884893999781 -10.622830216876537
-0.23969955371249094 7.042047580199398 -10.435363891959568
-0.5751274710197124 6.157097749062425 -10.071616559263141
-0.8539796586624357 5.3103499984805245 -9.587712079382491
-1.0675546362329715 4.478116678039652 -9.048554924221607
-1.1142785529873136 3.6090552303264185 -8.530691300867902
-0.7896879406183546 2.727714925269396 -8.16313954670503
-0.15720597612265777 1.9654789216950963 -7.947767578565858
0.5877654219064575 1.3088513505352053 -7.741246101436569
1.3783448930322553 0.7411526660885374 -7.456499667427725
2.20667584158514 0.30742012216319264 -7.065184739542843
3.073508812819283 0.07274616603597918 -6.595682817876963
3.955444263861098 0.02383292811888985 -6.097446643772272
4.819713497627585 0.06661163251867666 -5.567909374370878
5.618540381552073 0.08768948410948967 -4.944238874184035
6.124762956265858 -0.1036405864714864 -4.093996440370019
5.588928521294227 -0.5424242456794088 -3.4218956271411236
4.598573660453023 -0.7160676464606528 -3.3429948594323435
3.6029258871240235 -0.6137649592057415 -3.496535876115781
2.666050828331605 -0.2887106099420849 -3.706331434944322
1.7824088188332574 0.1919460272917284 -3.828537453080218
0.9391682053273149 0.7078152238994846 -3.6294442811985035
0.33295367628661465 0.8982412458648186 -2.860485724548034
0.08191113733140586 0.7057235607656274 -1.897925664832476
-8.047272500029966e-05 0.3748386170029159 -0.9426939693289154
0.0 0.0 0.0
0.04101197701701774 -0.3801252172544771 0.9398717886905207
0.09550195243010297 -0.7370047491347242 1.8879939003181792
0.153337597552589 -1.0408837031222036 2.8542133197585353
0.22349277560293324 -1.2575375649422382 3.8425726416006056
0.32152260016479944 -1.3480916210962295 4.847832930760824
0.4522751050139384 -1.2738852219192953 5.850419628771798
0.5991547870910809 -1.0083412304886734 6.817478057071728
0.725066084729743 -0.547598067891928 7.711399759563057
0.7872819376301218 0.08625623986605063 8.499801258535726
0.7576130014818548 0.8524488345015928 9.162831145112836
0.6327619742780207 1.705316362848664 9.696749652719907
0.43132353331668893 2.6078713267932923 10.11330637040559
0.18702277323800218 3.537435828516851 10.437838981890438
-0.059884418747476145 4.48404999052653 10.70669417612121
-0.2819428089092996 5.4407095373815055 10.96128055630421
-0.47941590569583514 6.394742971333841 11.244362548798989
-0.6698326867480878 7.323596824700455 11.604684499867394
-0.8737375456386391 8.181679301326009 12.104194495611306
-1.1028448302759282 8.86841727757939 12.81103156833365
-1.3401389421355052 9.208232094584194 13.731015337711591
-1.5355628435235038 9.071676727947155 14.711477581819512
-1.6630506083870675 8.559019378268333 15.574869461022987
-1.7418068481684832 7.856337707162456 16.301629936504522
-1.7936464100708818 7.075081700050113 16.946585540175427
-1.8204725549266467 6.262141860869037 17.553042615961097
-1.7987047803360607 5.4313271033602755 18.134876683747517
-1.6984266259917433 4.5872934355286406 18.688528175229862
-1.5253926073884678 3.7439881510635664 19.225429595711038
-1.3562072762004236 2.9253906136555567 19.80043056177046
-1.3496907372165443 2.188494684560784 20.492442964739933
-1.6238526788147623 1.644986597658902 21.271606137803406
-2.1595182321037085 1.2980088468160282 22.09115177308863
LINES 1 65
64 0 1 2 3 4 5 6 7 8 9 10 11 12 13 14 15 16 17 18 19 20 21 22 23 24 25 26 27 28 29 30 31 32 33 34 35 36 37 38 39 40 41 42 43 44 45 46 47 48 49 50 51 52 53 54 55 56 57 58 59 60 61 62 63
POINT_DATA 64
SCALARS NodeIdx int
LOOKUP_TABLE default
0
1
2
3
4
5
6
7
8
9
10
11
12
13
14
15
16
17
18
19
20
21
22
23
24
25
26
27
28
29
30
31
32
33
34
35
36
37
38
39
40
41
42
43
44
45
46
47
48
49
50
51
52
53
54
55
56
57
58
59
60
61
62
63
