# vtk DataFile Version 2.0
Vessel Segment
ASCII
DATASET POLYDATA
POINTS 64 float
0.44415791025475526 11.587440841094374 -10.819779816204381
0.013771742842226008 10.724689690138707 -11.221334510141844
-0.2870296739988652 9.793469184517637 -11.27690377019769
-0.5484306865956794 8.814470172215175 -11.177254233140713
-0.7821058998118845 7.8475676758432185 -10.976723099275628
-1.0085812694474066 6.890820666130414 -10.726779110408584
-1.2274002314864514 5.934678573403283 -10.467246278489212
-1.394252523942105 4.9585924987367545 -10.247312065111348
-1.3216424345790674 3.951524004301601 -10.17891961202418
-0.7644025037927108 3.1297567904026757 -10.348952263428602
0.0518383197169824 2.5697252511081206 -10.565835669797007
0.9517803056106173 2.1267754718158587 -10.717059382754982
1.889080807328013 1.7431202504411054 -10.773548432910717
2.8438381709169835 1.4044663457207314 -10.722163860196074
3.801320919690371 1.1153691655597264 -10.553650423590112
4.745309011749248 0.8908967203548451 -10.258577032933962
5.650997160883578 0.7555657529565978 -9.823269067492179
6.469906656123962 0.7467370883003792 -9.226493240281094
7.096601654089727 0.911222758197524 -8.448930754891029
7.33756054008979 1.2631939640122176 -7.534441484947347
7.0703791087205055 1.6982680056261292 -6.663260087656213
6.43796432664576 2.0746152383542342 -5.9678036224211075
5.619967224349871 2.3421099973422583 -5.432015708962927
4.713523780567736 2.4950796884322424 -5.0035769718326994
3.771372075807487 2.5335456151996616 -4.629744775225726
2.832266452541607 2.454510993070775 -4.254677247492391
1.9407392769256138 2.2523278404975677 -3.8158220699278935
1.1619177352335477 1.9258599871668438 -3.2553622861502585
0.5717416432831909 1.4955149061454798 -2.5531874256217533
0.20713430777256817 1.0061911497398233 -1.7439482111421238
0.03657592683993343 0.5000290734379877 -0.8818551314582134
0.0 0.0 0.0
0.04779809624990559 -0.4814209291438872 0.8916713720390034
0.14618344798538352 -0.9320307443522665 1.7952958228750648
0.27218274764052636 -1.3347103561185134 2.7179154055897743
0.4093359117523143 -1.66451918508494 3.6674915313673218
0.545132419615919 -1.888021209630715 4.647483982902382
0.6686409998969457 -1.9673954921167964 5.650870718676859
0.7691489660180946 -1.8745132585357136 6.655575125987147
0.835705217820652 -1.6070778484949082 7.631423063430065
0.8582385700772971 -1.1880064178394565 8.554667903407335
0.8270812297657131 -0.6485204190263227 9.413001139505443
0.7325933751319623 -0.01670773605167506 10.20084959914566
0.5671419741363134 0.6832974339364691 10.916062002053692
0.3287468938766087 1.4280937410462309 11.562214948183046
0.023254661996867123 2.1942864473699997 12.152804066777977
-0.33735296761352895 2.959207583190554 12.71325696991181
-0.735864740095271 3.7013991115754443 13.278779748082565
-1.150265558582245 4.398663244983793 13.888060131161733
-1.5555784216697341 5.026459856727076 14.573891598510652
-1.9254912350882172 5.5592934976308275 15.353545557643237
-2.2382892970919515 5.977899399184935 16.222678960214242
-2.482325409512349 6.27368225077408 17.16159457126432
-2.654050930996468 6.444606465798115 18.14640335856459
-2.755334478126594 6.489630201051518 19.154522800455275
-2.7908056528270646 6.405315816066331 20.164602340167807
-2.7653443052270266 6.186687316721894 21.154619708774444
-2.6802684235611265 5.832037350485059 22.100905544918096
-2.531747021587891 5.352074201488173 22.981873470266247
-2.3113462508275777 4.774295277741841 23.785626051748807
-2.0072511130357586 4.137306589036539 24.514534757099568
-1.6044226923801583 3.4820276719660095 25.183764840193174
-1.1256395146562554 2.8779520452506246 25.781535942436257
-0.4885320986250564 2.3101691169088876 26.390220851399604
LINES 1 65
64 0 1 2 3 4 5 6 7 8 9 10 11 12 13 14 15 16 17 18 19 20 21 22 23 24 25 26 27 28 29 30 31 32 33 34 35 36 37 38 39 40 41 42 43 44 45 46 47 48 49 50 51 52 53 54 55 56 57 58 59 60 61 62 63
POINT_DATA 64
SCALARS NodeIdx int
LOOKUP_TABLE default
0
1
2
3
4
5
6
7
8
9
10
11
12
13
14
15
16
17
18
19
20
21
22
23
24
25
26
27
28
29
30
31
32
33
34
35
36
37
38
39
40
41
42
43
44
45
46
47
48
49
50
51
52
53
54
55
56
57
58
59
60
61
62
63
