# vtk DataFile Version 2.0
Vessel Segment
ASCII
DATASET POLYDATA
POINTS 64 float
2.945579938250366 13.892192743733748 -11.09092583758222
2.3695636508278337 13.193690570361028 -11.613941728836949
1.9022936143151434 12.438422135779213 -12.013169617062903
1.4810189375628655 11.547532242777619 -12.296489765625303
1.1440092423109656 10.595901339989984 -12.365054017817442
0.8568658712405919 9.635452595819576 -12.211293539588803
0.5850170541050653 8.713148030637168 -11.888123114711592
0.3040316019322378 7.829540709720225 -11.476303467271633
0.005125554086555549 6.963877963267056 -11.039563799685821
-0.30973410950298247 6.093825175445267 -10.623476754639478
-0.6272108392255018 5.1993720505577175 -10.265194891774945
-0.9111066696692067 4.2600311266564725 -10.003431867192058
-0.9154966404753903 3.2511203107519027 -9.905874045712412
-0.19863435083552458 2.591830533590342 -9.81067324165229
0.7186056222101179 2.2567406970382464 -9.50797219000633
1.5875535838327726 1.9023501425974616 -9.12331368485376
2.448486635163717 1.5300547550969446 -8.736959308755951
3.340042115790121 1.2027750293134638 -8.379923954995366
4.275384424518479 0.999382531580191 -8.045039613038233
5.219963696763709 0.9787579006547722 -7.676548470271649
6.06812538179347 1.1823138845176067 -7.159606387680208
6.497443231354885 1.5888559294710591 -6.351984377005507
6.1813260354888 1.9537991460398567 -5.467008149994295
5.452182508171951 2.1401642581613882 -4.785351710411697
4.5949644027946634 2.2119700377045803 -4.248213110115259
3.6937258384509435 2.2014952805179275 -3.7825320617039835
2.7893633520666787 2.111717238922288 -3.3315673631808522
1.921445093224578 1.9225548801338852 -2.841792034454745
1.154797929944731 1.5997125464740642 -2.262053656301734
0.576529308232449 1.1329763361265408 -1.572867239173863
0.21270901331868544 0.5761983612223305 -0.8073556455815701
0.0 0.0 0.0
-0.13491880665648817 -0.5506474665104515 0.8413818173708774
-0.23710626226449577 -1.0456982939370951 1.7210340209652344
-0.3235928139522439 -1.4582099766033159 2.643767100477935
-0.3868547252516901 -1.761180570266115 3.609775022683039
-0.401271965265973 -1.9267329909867186 4.610318021692186
-0.3376494817527202 -1.9284580505431006 5.6224693037196465
-0.18509585525041078 -1.7501352701877593 6.608938320735476
0.0363631318081722 -1.3956453854053028 7.5329425466981705
0.2857893294781316 -0.8852764199747926 8.373155739283876
0.5185225172913097 -0.2431233336193904 9.123000418950046
0.6972060871977468 0.5076233449552024 9.781265078582505
0.7963281471120477 1.3412661989606247 10.350558016658614
0.8076261918035116 2.227457241156366 10.844132881026711
0.7420907590998136 3.1353534602400215 11.292143894480125
0.6240473783997154 4.037223975583629 11.741778319985071
0.48214091761931355 4.904953232232757 12.247769563153208
0.338439833813952 5.704730098377188 12.854856530459935
0.19703517596195672 6.403802588847804 13.576016747009602
0.034879895194908465 6.985240728516213 14.39119579363801
-0.19109744055375627 7.441589344576198 15.268399312895797
-0.5244061761661947 7.748099300417283 16.175727176580995
-0.9734506467823971 7.8519929935193264 17.078647460773436
-1.473618406299575 7.706549384368996 17.94829703108818
-1.9157801917936386 7.322115502295501 18.775675974026075
-2.2256990461411563 6.767531621903249 19.566069634732443
-2.397704064732466 6.124206415277225 20.33123133630865
-2.467992380440428 5.450291266852007 21.086412538939353
-2.4891085859892113 4.778449720710141 21.846726655423037
-2.518812165775003 4.1267268202691305 22.621173531698584
-2.6338259563125095 3.4992538517122 23.423640878515677
-2.869737523991594 2.9442080903754735 24.19018995261003
-3.3641301940536996 2.443119331866568 24.962139865677194
LINES 1 65
64 0 1 2 3 4 5 6 7 8 9 10 11 12 13 14 15 16 17 18 19 20 21 22 23 24 25 26 27 28 29 30 31 32 33 34 35 36 37 38 39 40 41 42 43 44 45 46 47 48 49 50 51 52 53 54 55 56 57 58 59 60 61 62 63
POINT_DATA 64
SCALARS NodeIdx int
LOOKUP_TABLE default
0
1
2
3
4
5
6
7
8
9
10
11
12
13
14
15
16
17
18
19
20
21
22
23
24
25
26
27
28
29
30
31
32
33
34
35
36
37
38
39
40
41
42
43
44
45
46
47
48
49
50
51
52
53
54
55
56
57
58
59
60
61
62
63
