# vtk DataFile Version 2.0
Vessel Segment
ASCII
DATASET POLYDATA
POINTS 64 float
0.6142885358480797 14.317701036917379 -8.542337180506697
0.2402241310931849 13.484231368232374 -9.035909059959804
-0.09054228056180101 12.606518553738091 -9.324918345553638
-0.4007559498012098 11.635770556017684 -9.440048271222683
-0.6552592192004173 10.660523654840874 -9.355337548544888
-0.8533788727945972 9.692263957155864 -9.123954331767651
-0.9771349122606218 8.73901058313859 -8.79984582973809
-0.9858507368914642 7.787000000502177 -8.449664034881918
-0.7990891484069412 6.834206449491226 -8.157178746832084
-0.3485044575735429 5.938490442202637 -8.008921028076044
0.31498885372838015 5.171337519743347 -8.006335006212266
1.096675768663475 4.528884288661405 -8.078469628449996
1.9465028288348265 3.981649727384755 -8.165760818927911
2.8434208617403223 3.5118317873291134 -8.229854017155173
3.7764934108505295 3.1138576916035303 -8.242493540925102
4.735715657988741 2.7896411989180248 -8.178084352456288
5.70589067451408 2.546582986070128 -8.00887700266923
6.65835878924049 2.3957468890656712 -7.699143873573011
7.546819870874001 2.355865245063347 -7.189051090205241
7.9938053615450455 2.4944730467895626 -6.325513908081354
7.397587329749885 2.7050564158915233 -5.577502739786862
6.407646128019353 2.7943894403091676 -5.305177260674519
5.408175676291271 2.811665621480804 -5.151528436648062
4.4028651300824 2.769612629842042 -5.018198187551107
3.4105705250522416 2.6653228248431864 -4.834571632086284
2.4570609765052684 2.4853081929290526 -4.53898272287168
1.5974235882934569 2.2126086973615244 -4.075484150806433
0.9096199933450063 1.8450197842970297 -3.4278807489723624
0.43729464102798854 1.4081755618471614 -2.643901919293468
0.15993325517546747 0.9372044524428877 -1.789370663955099
0.02892102737301227 0.46014337774019215 -0.9036671540679108
0.0 0.0 0.0
0.04066838883173621 -0.4207855332481601 0.9222989540452894
0.1255699261266341 -0.7769749436407005 1.868489009322171
0.23032023137688928 -1.0398803909299832 2.842685976786588
0.3263038525924035 -1.1819977860457958 3.842525240913884
0.3813410373223479 -1.1888026696538732 4.855403385859101
0.3703608929255919 -1.0695725758096166 5.862761142351453
0.2860371966432596 -0.8508999218428068 6.849826997698714
0.13592990514004424 -0.5603111094979709 7.810198380300111
-0.06500110597741694 -0.2148221472926657 8.742711185327904
-0.29795171729233344 0.1816160161316446 9.647116671027097
-0.5428760001261337 0.6351782320480407 10.520930517840036
-0.7795433100774358 1.1565444684613382 11.358475342307369
-0.9891844384523466 1.7549638751134506 12.150441656292601
-1.1571466897937626 2.4332248118048905 12.88590209739166
-1.2779126784095163 3.1859270763661742 13.555297340038727
-1.3566069056974632 4.000765094451934 14.154556847530241
-1.4056355335488702 4.862141318702109 14.688365683466003
-1.4370650533198943 5.7540781689804685 15.170853517192304
-1.4577813305378764 6.66178634333364 15.623788071065098
-1.4683717026632965 7.5710696162277955 16.073740995922257
-1.4648406156534892 8.466667330143437 16.550535819538737
-1.4399128715476786 9.328822610026071 17.084702813716188
-1.3862876688736017 10.129139197841598 17.705770381927024
-1.2999292425926683 10.826783403507212 18.43702135947583
-1.1854537134318968 11.370056048451213 19.285735777117512
-1.0619270541122396 11.714126272940153 20.231743368861036
-0.961715731981729 11.84853632196169 21.23188355303152
-0.9261420685141067 11.80343714503271 22.245080695329968
-0.9974249047762163 11.627327761512202 23.23936429646551
-1.2539533219054795 11.366195887891756 24.19509284407066
-1.7129029708948151 11.090371349523853 25.020572119802015
-2.493734234081274 10.864346432207146 25.66534958924745
LINES 1 65
64 0 1 2 3 4 5 6 7 8 9 10 11 12 13 14 15 16 17 18 19 20 21 22 23 24 25 26 27 28 29 30 31 32 33 34 35 36 37 38 39 40 41 42 43 44 45 46 47 48 49 50 51 52 53 54 55 56 57 58 59 60 61 62 63
POINT_DATA 64
SCALARS NodeIdx int
LOOKUP_TABLE default
0
1
2
3
4
5
6
7
8
9
10
11
12
13
14
15
16
17
18
19
20
21
22
23
24
25
26
27
28
29
30
31
32
33
34
35
36
37
38
39
40
41
42
43
44
45
46
47
48
49
50
51
52
53
54
55
56
57
58
59
60
61
62
63
