# vtk DataFile Version 2.0
Vessel Segment
ASCII
DATASET POLYDATA
POINTS 64 float
4.636783773010194 14.630879557231678 -10.101075816880314
4.010043871657342 14.060270325832143 -10.713288953749224
3.3344324212004475 13.535893272326843 -11.178936518735357
2.5800323514555883 12.964039388625585 -11.575033447851393
1.8194806535334618 12.3579384903854 -11.855896104047714
1.0813457335310266 11.68478149665274 -12.033108976359465
0.4089516256486701 10.929893106377818 -12.116292490824504
-0.1506589942246495 10.084189885691753 -12.133543546070879
-0.5414121960469572 9.148498183480223 -12.127802804986588
-0.7001427135789674 8.147552877858022 -12.14768807017384
-0.5843100107378677 7.142717287299695 -12.211885549921456
-0.2102214575376832 6.203350034887261 -12.285647910595548
0.3607404168900777 5.365565392468302 -12.30402191919161
1.0580591540333801 4.635119930399907 -12.210932507862264
1.8200801580024015 4.00400715658355 -11.987836650617595
2.601879222642664 3.4559552277728804 -11.645160676739996
3.3752631767239323 2.969920998497164 -11.203807053523338
4.121013462394888 2.525764894490801 -10.678764252002823
4.817345473528667 2.1066863423240423 -10.071245155970042
5.416865800203139 1.701159591661034 -9.361476806183141
5.7730306881551 1.3186116975944444 -8.494927403057865
5.531428469656694 1.091886429119832 -7.549178370085612
4.81547588949464 1.1108615598769702 -6.825712022341933
3.9960742360809633 1.2413667267703465 -6.2437489003615205
3.1674322575395006 1.4064332708122786 -5.681778083245921
2.3734046645038265 1.5560115124900467 -5.068314006512829
1.6579947326790223 1.633673850452857 -4.353636489255196
1.0738975181112442 1.576124308927125 -3.5271734728030193
0.647734262860873 1.3520933331507037 -2.6348682180657628
0.35431594638478875 0.9859140443879586 -1.7356723069590059
0.15006365743605482 0.5221111556885012 -0.8567732890025435
0.0 0.0 0.0
-0.12051962102230851 -0.5487149936781544 0.8449445367008606
-0.22975392402080203 -1.0970436778452433 1.6915046378635172
-0.34099348457801565 -1.6224551171078374 2.552296354430048
-0.46102325666816385 -2.1068954489726393 3.4357071600207987
-0.5884818544575765 -2.5363449676962797 4.345918628816055
-0.7149893847983384 -2.897538744616775 5.285492450469624
-0.8274926866866905 -3.1741470547877806 6.2550849621451174
-0.9106371716813775 -3.3440610080347164 7.251663318278853
-0.9496225923812394 -3.381592463840181 8.264556075205666
-0.9354334029681458 -3.2632612717369285 9.271684998729537
-0.8683226188943265 -2.9786843308634414 10.242809296667048
-0.7581793484867112 -2.5349867975638185 11.148199062157268
-0.6200221305735475 -1.9529622673807603 11.967244046637342
-0.4702307582548541 -1.2588064606646756 12.691570966443877
-0.32250798569543215 -0.4777991926718675 13.321849689847806
-0.18694865142416162 0.36838329382274054 13.86479613027647
-0.06965655293290426 1.261002112344734 14.332464123404872
0.026225912499237742 2.1838649153503553 14.742909278311616
0.09986401363199311 3.122246270895007 15.121635133020884
0.15079319530623134 4.060978739970949 15.503241776391484
0.17718924489155263 4.980612958291982 15.930898655977611
0.17340092986978045 5.851659724707487 16.450644142631376
0.12849740555629588 6.632109070321365 17.096714402949992
0.029597835713141753 7.272833772616797 17.876377640088702
-0.13094267907890533 7.738096346976795 18.762925405810346
-0.3489438451922547 8.017920564052114 19.712984159223712
-0.6091883085536709 8.115327419432472 20.6883658753981
-0.889363633941728 8.0317308086744 21.659605691014594
-1.162378729207041 7.765533560328406 22.597595882183718
-1.3970151032438651 7.295857534741185 23.477076013054994
-1.5590789417821465 6.6847082251163785 24.219083606377204
-1.6235362562596218 5.8514891408075025 24.846569345705454
LINES 1 65
64 0 1 2 3 4 5 6 7 8 9 10 11 12 13 14 15 16 17 18 19 20 21 22 23 24 25 26 27 28 29 30 31 32 33 34 35 36 37 38 39 40 41 42 43 44 45 46 47 48 49 50 51 52 53 54 55 56 57 58 59 60 61 62 63
POINT_DATA 64
SCALARS NodeIdx int
LOOKUP_TABLE default
0
1
2
3
4
5
6
7
8
9
10
11
12
13
14
15
16
17
18
19
20
21
22
23
24
25
26
27
28
29
30
31
32
33
34
35
36
37
38
39
40
41
42
43
44
45
46
47
48
49
50
51
52
53
54
55
56
57
58
59
60
61
62
63
