# vtk DataFile Version 2.0
Vessel Segment
ASCII
DATASET POLYDATA
POINTS 64 float
2.3893621361293884 13.907124159637252 -8.493635020470085
1.8840769123216754 13.225826144060399 -9.102549402836729
1.4092980642392776 12.409257271924744 -9.35404374641269
0.9687219800037488 11.48938399395202 -9.428177826359423
0.611152322485401 10.54321346097772 -9.368525433267967
0.3327650522636251 9.576080571974394 -9.240282816529534
0.12767947396606646 8.59831313541346 -9.063661651097236
-0.024859725925119553 7.621215586532332 -8.837125549485465
-0.15918056830719168 6.658396895968318 -8.5469255619334
-0.30991552024080155 5.72359029822718 -8.182754481310322
-0.4841459524733974 4.820161138578352 -7.755177234890786
-0.629827859388381 3.9238457335985713 -7.302798866894993
-0.59952674167308 2.9914607718334616 -6.9041422271806585
-0.18785754437686653 2.0945145875690874 -6.6914210628787805
0.5570054307827452 1.4083911029578464 -6.672556966115889
1.460548537640624 0.9511040361747041 -6.720012953553618
2.4388661488456993 0.6855749862036117 -6.750510978749908
3.4472070062871745 0.5803915057963922 -6.72129822096783
4.45467987796975 0.604523135077997 -6.606257859162681
5.436262044556057 0.7273725892071661 -6.381102180268902
6.357786489623115 0.9179453639766099 -6.007470005080255
7.149633324906303 1.1402295924839432 -5.40772037396593
7.367615621208584 1.2619723240497502 -4.440403215540705
6.692644954937871 1.1465598698435457 -3.7024562754750825
5.785746650127798 0.9639043953528166 -3.2955532762782727
4.82576366836115 0.7720790665584457 -3.025190993804967
3.854278413210157 0.5862883592832269 -2.7999773586530843
2.8864507880573407 0.4133969857966515 -2.549407087142261
1.9463013173545551 0.26129793523621436 -2.200249320942881
1.0886091858320321 0.13945071264539674 -1.6735800458807826
0.41273075825254874 0.05481354191046041 -0.9238063281145805
0.0 0.0 0.0
-0.16652241735233325 -0.043832204729423514 0.9992719554349809
-0.16113529390189824 -0.09194867781154607 2.0124869053972896
-0.05157662206378751 -0.14891567615837603 3.019433042033422
0.11608425369110757 -0.21165195443784304 4.018140221410213
0.31290684873256225 -0.27176515438062676 5.011645997593026
0.5235673967897707 -0.3173257997047399 6.0030987425991835
0.7420101829509104 -0.3323782009095085 6.993749277866125
0.9677316391337057 -0.29633588249459514 7.9822580603943205
1.199096735727 -0.18235310381146588 8.963365423005785
1.4263522800605535 0.04137190581016462 9.926324294299892
1.626603839444777 0.40418090047831867 10.852027798002164
1.7649655255744472 0.9203737264959582 11.713907117625416
1.8050363384672705 1.577367557368212 12.485329406600473
1.725512986791657 2.3389798073529318 13.150291095119119
1.52959137904142 3.1630826638801364 13.708098425960584
1.2365641567650214 4.016682504941204 14.171307041198785
0.8726489332959299 4.879944280032938 14.560623359262836
0.4657706433418372 5.744171254239208 14.902607047646184
0.042100781200822966 6.60661504788366 15.22832733799932
-0.3761085310546159 7.465126275803243 15.57107591530994
-0.7714594136406383 8.312501435815925 15.96472784203784
-1.1321756370670235 9.13180421252063 16.44192635435453
-1.4525262250698097 9.893240609711658 17.03040007418659
-1.7341616219459952 10.555044030894951 17.745364805947936
-1.9845151657223397 11.068151813171513 18.583442365228347
-2.2158992635895816 11.385216931227884 19.518253707741984
-2.448378536804089 11.483843781382646 20.500279285910135
-2.709902332295169 11.381081615195443 21.474780747937526
-3.0321537920915445 11.122536351608982 22.399458636387273
-3.4673806365929942 10.774956423940015 23.258349613369596
-4.005865094331718 10.431942507596876 23.99768551373502
-4.816816438256444 10.243762721679715 24.628404308779302
LINES 1 65
64 0 1 2 3 4 5 6 7 8 9 10 11 12 13 14 15 16 17 18 19 20 21 22 23 24 25 26 27 28 29 30 31 32 33 34 35 36 37 38 39 40 41 42 43 44 45 46 47 48 49 50 51 52 53 54 55 56 57 58 59 60 61 62 63
POINT_DATA 64
SCALARS NodeIdx int
LOOKUP_TABLE default
0
1
2
3
4
5
6
7
8
9
10
11
12
13
14
15
16
17
18
19
20
21
22
23
24
25
26
27
28
29
30
31
32
33
34
35
36
37
38
39
40
41
42
43
44
45
46
47
48
49
50
51
52
53
54
55
56
57
58
59
60
61
62
63
