# vtk DataFile Version 2.0
Vessel Segment
ASCII
DATASET POLYDATA
POINTS 64 float
-0.15578683963782108 12.00386411163178 -8.464986343404194
-0.4959718982383956 11.299928371745299 -9.158432008783967
-0.5725169021060122 10.421423632888988 -9.58062342666447
-0.5552806113376337 9.425301821695735 -9.798599145354517
-0.5120244830749435 8.41253294666482 -9.80125607144713
-0.4887675594643857 7.410301103741399 -9.647341886682378
-0.4854375138554779 6.4266848793149185 -9.398632502313182
-0.4708962530392102 5.449146726818723 -9.127368794716334
-0.3700207291793999 4.460147341295522 -8.92668027732638
-0.041615179648527734 3.5032854368840876 -8.89816168997112
0.6076739029725567 2.736753264205146 -9.016724618581243
1.4874281352335197 2.24478862193792 -9.11896921527574
2.46502944847402 1.9769797886739273 -9.106091720670776
3.465741274063935 1.8668459473659862 -8.980759234793405
4.460312939566306 1.8615213499441687 -8.786424652525493
5.445223973252086 1.9243355674576452 -8.570059274380093
6.478158363618293 2.0946744614937955 -8.298826769557365
6.870101977319212 1.796045996947686 -8.658042670344464
5.7939316153415295 1.487530409786307 -8.633780414162755
4.864125262445539 1.169487756920177 -8.505664359844582
3.9308965984016657 0.88400480399824 -8.222866734300993
3.0260297408492556 0.6232714110260651 -7.844168814633371
2.1373644851557563 0.3969240058591772 -7.410573102512968
1.253988295621677 0.22743017672983243 -6.941334522282414
0.3957142869074503 0.1391800890681979 -6.407944153696181
-0.35639257963283677 0.13625002006833142 -5.728439547206542
-0.8621305139463099 0.18819155898855763 -4.853205269159106
-1.0527681865534844 0.2438874181665492 -3.8597012511320146
-0.9933382076381281 0.26736977674061263 -2.8478193913681045
-0.7658193614498963 0.24117656092385117 -1.8597871369323955
-0.42345374967568106 0.15434849349769977 -0.9088856781340509
0.0 0.0 0.0
0.47706790809399835 -0.2209368170078198 0.867538493394235
0.9790810902392053 -0.4990099191365402 1.704199920182255
1.4680112671214385 -0.8167017127589417 2.5345278232934585
1.8931147136286577 -1.1481988162334853 3.3939152296667383
2.199651468070595 -1.4547597769683074 4.310710488447821
2.3612944434411904 -1.6875465584103841 5.284369588246558
2.397492782171969 -1.8023117861761107 6.291360946770748
2.345038079879149 -1.7627203730575611 7.303331225372103
2.2345804173717583 -1.5350871685213774 8.285128598391996
2.081823376176496 -1.094588467359179 9.185124219990957
1.889237695888522 -0.45266876734817246 9.945569879730995
1.6585864061258089 0.331612116324716 10.545564265636834
1.3982364412589836 1.191461844810166 11.016589491767071
1.1184881401815885 2.08581267429678 11.405467509979543
0.8273415383300252 2.995258468183072 11.748303685846922
0.5273607962215398 3.908465378486396 12.073051901924346
0.21462440072828218 4.81291179270491 12.40998788845552
-0.11901988883660446 5.688506171473372 12.798876127267762
-0.4808684856543364 6.500809335751905 13.286712783541168
-0.8696986681337837 7.190897955231622 13.919402627916005
-1.2665167444104442 7.654700365599838 14.727509572032805
-1.6231115327221577 7.766744266621018 15.66780775766129
-1.9003687022563038 7.5242874075735395 16.611517574292918
-2.1063026243054246 7.040678469808065 17.478672935712687
-2.2575802794904862 6.409766093993391 18.258235603808984
-2.352879808554988 5.680249933743857 18.956526625110893
-2.3822761929495386 4.878488456616543 19.57719777261406
-2.3463210791849733 4.024446126209501 20.1234815255871
-2.270081139222752 3.139078470739508 20.613290142499928
-2.2120213686657384 2.2527151596575385 21.10097433742535
-2.2601196561110064 1.4200980873780242 21.670885343887456
-2.790464040134601 1.2121190790644967 22.516331677937167
LINES 1 65
64 0 1 2 3 4 5 6 7 8 9 10 11 12 13 14 15 16 17 18 19 20 21 22 23 24 25 26 27 28 29 30 31 32 33 34 35 36 37 38 39 40 41 42 43 44 45 46 47 48 49 50 51 52 53 54 55 56 57 58 59 60 61 62 63
POINT_DATA 64
SCALARS NodeIdx int
LOOKUP_TABLE default
0
1
2
3
4
5
6
7
8
9
10
11
12
13
14
15
16
17
18
19
20
21
22
23
24
25
26
27
28
29
30
31
32
33
34
35
36
37
38
39
40
41
42
43
44
45
46
47
48
49
50
51
52
53
54
55
56
57
58
59
60
61
62
63
