# vtk DataFile Version 2.0
Vessel Segment
ASCII
DATASET POLYDATA
POINTS 64 float
2.335047214700059 11.430899422928206 -7.544614446461235
1.5789259668592321 10.706699844828579 -7.531482024304184
0.954895821579079 9.962475040326732 -7.587341541141996
0.34738623893523607 9.140842334633957 -7.672004377225751
-0.2096370683874117 8.299291639572765 -7.76001051367473
-0.7415562134228313 7.437167151856317 -7.816615181360283
-1.254799862277969 6.5624416526346305 -7.789850582815803
-1.7252167230447912 5.685088879101482 -7.59782238864339
-2.0313909197317184 4.811515137290232 -7.186390294066432
-1.9653041373554063 3.9403833166201077 -6.676914561711914
-1.4839044172507063 3.1292435683349744 -6.309455024715869
-0.7583775162194215 2.4369997508481287 -6.162661090359943
0.08434388713864177 1.873582666309505 -6.188257627930692
0.9917362287229187 1.4400441982384418 -6.32022233618775
1.9445470579899777 1.1362802135613361 -6.489884360617578
2.9324097446453434 0.9488297012171363 -6.623905511025528
3.9407935860178407 0.8439082898679322 -6.6549177117261955
4.945514006992047 0.7713346564763587 -6.536969308487568
5.914373939976985 0.6801938718659283 -6.251997020333429
6.810129420442503 0.5287557969071828 -5.799104816954117
7.565784421655264 0.2828109779214058 -5.177510953109262
7.973693877068197 -0.11561017857231397 -4.342279952415999
7.399986928314688 -0.5290561820407046 -3.6410929606896
6.41674307261029 -0.687999739249829 -3.4336330710274097
5.4068152448352365 -0.7276981004589335 -3.3674591958867794
4.393715390041007 -0.685880116026348 -3.327211624815109
3.389500254437303 -0.5778960360232196 -3.2322338100472283
2.41538415787251 -0.4152694572779159 -3.00165705542893
1.5291044985862503 -0.22631612041135563 -2.5480407073408236
0.8200713617309968 -0.06817486179161315 -1.8420793521498235
0.3259032152275109 0.009682960076647968 -0.960463070060758
0.0 0.0 0.0
-0.2252469649302028 -0.07954876436835624 0.985977620156107
-0.3977756308610177 -0.21055451174135556 1.9770899105260968
-0.5429536448679417 -0.379482037862741 2.96696598189074
-0.6687223057183854 -0.5735187040341102 3.9548264869069034
-0.7680390573603756 -0.7741567754673144 4.944412329236284
-0.8227616710544081 -0.9512935480999359 5.941910856993767
-0.8118008161778318 -1.0622479333118047 6.950120731040774
-0.7230965068928491 -1.0598160279307234 7.960477546377643
-0.5632025795180001 -0.9113735778107794 8.950957044286016
-0.3531383726341295 -0.6096754422395854 9.896188453540598
-0.11744281344676778 -0.1660850776019441 10.777376925059237
0.12346236321585415 0.40343669729336995 11.58138160340466
0.3529702880592251 1.086463153593687 12.295228245021343
0.554310278796959 1.8743772678239763 12.901318185282397
0.7062553453912886 2.75459710439096 13.381663931983411
0.7832210684340928 3.703813272318042 13.730479913151965
0.7609023036662429 4.689794696227876 13.96744330366185
0.6259245046563748 5.67995010496546 14.141948381798281
0.3834573004900571 6.649008836108124 14.318639863982863
0.05747057660600714 7.5798930704987475 14.55576247244677
-0.3185539224681148 8.45699136487685 14.899512116226084
-0.7088991547665532 9.256254782184975 15.386615576142828
-1.0787391500435857 9.935337571975396 16.042316594450288
-1.403223676416289 10.432876413008625 16.863519361764627
-1.6796430254745343 10.698466004170857 17.8019149757244
-1.921360881356613 10.731684347678739 18.786032508464135
-2.1445775093671418 10.580467670478384 19.763854507697598
-2.361080598295316 10.313241272420465 20.718257645424934
-2.5764564113854447 10.001746160878204 21.658551273926562
-2.792022681225185 9.746132756511887 22.623774552645877
-2.9882624398644557 9.667102065322785 23.581540536268953
-3.1312799390704775 10.05684213779541 24.53773166164527
LINES 1 65
64 0 1 2 3 4 5 6 7 8 9 10 11 12 13 14 15 16 17 18 19 20 21 22 23 24 25 26 27 28 29 30 31 32 33 34 35 36 37 38 39 40 41 42 43 44 45 46 47 48 49 50 51 52 53 54 55 56 57 58 59 60 61 62 63
POINT_DATA 64
SCALARS NodeIdx int
LOOKUP_TABLE default
0
1
2
3
4
5
6
7
8
9
10
11
12
13
14
15
16
17
18
19
20
21
22
23
24
25
26
27
28
29
30
31
32
33
34
35
36
37
38
39
40
41
42
43
44
45
46
47
48
49
50
51
52
53
54
55
56
57
58
59
60
61
62
63
