# vtk DataFile Version 2.0
Vessel Segment
ASCII
DATASET POLYDATA
POINTS 64 float
-4.234710502184686 11.703317191607251 -10.084439402056612
-3.736408592433684 11.120088420690948 -10.78125221591383
-3.2803312742780464 10.407246148840112 -11.283230513327984
-2.8304891518440236 9.528094019881973 -11.552569652293363
-2.406400139436427 8.609469446232309 -11.529101681123532
-1.9675053628515624 7.717467738650049 -11.324453194436185
-1.5031909833908084 6.867300249355127 -11.023123851935994
-1.0241082446153364 6.045576013188043 -10.669972784993478
-0.5497162847051539 5.2371258913641725 -10.281697569810307
-0.09239067069231048 4.43281722571788 -9.86535145197149
0.3473143771552775 3.632348810194731 -9.423344995053007
0.7868415072974997 2.848099903314203 -8.953563852815583
1.279986728320822 2.1183213317210883 -8.447074506511896
1.9722493362167168 1.6146720202983773 -7.906837523135878
2.8702993347124965 1.6486011541167618 -7.459007424474317
3.726311985752882 2.1183030156331553 -7.169035530988594
4.475257660391263 2.760000906464146 -6.934904989011638
5.128254993921501 3.497847620720082 -6.693117893484482
5.674347302672929 4.302333446622602 -6.403651970999428
6.08248210057465 5.14944237535275 -6.021540212986776
6.232416290919663 5.955202125635478 -5.419832617320622
5.816938847682881 6.142572197928182 -4.583804586966347
5.128034516679823 5.543606297954561 -4.070515860772051
4.465781256807718 4.857501587511612 -3.7515859041521904
3.781189417220518 4.1487100797992715 -3.50196930610316
3.07338483737774 3.4572468592260197 -3.2793908611001097
2.341203408377713 2.7946812611525167 -3.0461028156840446
1.5990136835760003 2.166695960772901 -2.7561029912352817
0.8939522475770684 1.5697169999865963 -2.3370834591436025
0.3375984833701588 0.9992031704886973 -1.7111971593815354
0.04344161792343519 0.46947535094257303 -0.8982336248826905
0.0 0.0 0.0
0.14815154617335227 -0.3910526554003972 0.9240509033181027
0.46436997457744594 -0.6670593406881764 1.8474485750902125
0.9434756862892191 -0.7619282260890416 2.7361517570327067
1.5524336950260946 -0.6094783257264738 3.5321626326213025
2.2122882818734384 -0.21876466726507718 4.195753006098567
2.8549427124947715 0.332937067800851 4.754082236515401
3.4490571327657937 0.9690224221967814 5.27546311547043
3.97492836852299 1.628304269859038 5.8396116960812385
4.395570728901025 2.23714184527746 6.533458908636937
4.651642834753681 2.6899454948101926 7.402709943219345
4.724614563396075 2.926871954568445 8.385923517581919
4.662728995078621 2.994735100646036 9.39635279974511
4.513047645112294 2.968915694623278 10.399457592464463
4.291081350222063 2.9050249597321787 11.387406212528953
3.986070294320798 2.8473633500017375 12.353211427649917
3.5634956058086162 2.8417127780046734 13.275488974613394
2.9779846812913675 2.9397411771868245 14.097533564462337
2.223524269695525 3.171152989259103 14.733396367425016
1.362239177965924 3.501459474801754 15.155617486343889
0.4541690577845098 3.8669934520685736 15.42226763636284
-0.4793467733348974 4.223587381882014 15.59755860361143
-1.4338661032369955 4.543271709305574 15.724452198805473
-2.4077930470363755 4.805944885881148 15.83305916574182
-3.397216045067612 4.996696069020293 15.951176419703263
-4.393331228420772 5.108848712043842 16.107658172224
-5.38235884077693 5.14780658446278 16.33046855546824
-6.348563417312373 5.131002122068998 16.638700888461727
-7.280529660318637 5.083166713155664 17.03906956703648
-8.16723890891673 5.029539271120167 17.52151074777925
-9.024247772709474 4.994945998038253 18.085836983912948
-9.810750129323429 4.993747501606289 18.676313292823576
-10.604513948479772 5.050713561224776 19.340329371797775
LINES 1 65
64 0 1 2 3 4 5 6 7 8 9 10 11 12 13 14 15 16 17 18 19 20 21 22 23 24 25 26 27 28 29 30 31 32 33 34 35 36 37 38 39 40 41 42 43 44 45 46 47 48 49 50 51 52 53 54 55 56 57 58 59 60 61 62 63
POINT_DATA 64
SCALARS NodeIdx int
LOOKUP_TABLE default
0
1
2
3
4
5
6
7
8
9
10
11
12
13
14
15
16
17
18
19
20
21
22
23
24
25
26
27
28
29
30
31
32
33
34
35
36
37
38
39
40
41
42
43
44
45
46
47
48
49
50
51
52
53
54
55
56
57
58
59
60
61
62
63
