# vtk DataFile Version 2.0
Vessel Segment
ASCII
DATASET POLYDATA
POINTS 64 float
-1.3132870515829251 10.550565794123454 -5.498863466365552
-1.3579118653436417 9.637575160679964 -6.006194092790551
-1.3258825842864859 8.813129822495966 -6.523242031283979
-1.2728308097040102 7.93381991363055 -7.050997882260693
-1.2300811086102659 7.027445999565995 -7.498902818905225
-1.239022068076473 6.0532003063271045 -7.780322124275593
-1.3115202572398927 5.042664550943149 -7.779000419512154
-1.329992278744487 4.051641991428322 -7.559138628799171
-1.0972343035964298 3.084023806770369 -7.37904798693769
-0.5885093741178967 2.207342693876955 -7.353677128238586
0.08048819848095208 1.444863570626013 -7.361211761470249
0.8440400755283558 0.7822543953839369 -7.280599997701928
1.675348666692875 0.2385683845800117 -7.076088426633953
2.574355583642804 -0.1455299336038261 -6.805910794124379
3.5499941545595375 -0.3177256069500305 -6.5919726048985305
4.559744836401267 -0.25742801080110633 -6.527989762896896
5.54705459148063 -0.02173809727425157 -6.590123607735391
6.484493813797003 0.2965374490178477 -6.676478153513689
7.508768309471775 0.7090260687294594 -6.760117886561416
7.68343973777017 0.5147776546284505 -5.980277178086138
6.8510448704098605 0.07180371286479742 -5.588495178931054
5.929503653139969 -0.26761479560212653 -5.36697278136418
4.930029227610427 -0.4467128141287186 -5.32521283878497
3.9177150239560383 -0.4344381867937701 -5.376397385908918
2.9219732293736578 -0.24408110032821345 -5.407474295595386
1.9714951069645135 0.07365557070342635 -5.253930954138234
1.1629282732488642 0.40400595161105096 -4.745665567713903
0.6172647913511043 0.596273350082946 -3.9146795587932415
0.29939941616813454 0.6160720672062455 -2.9518269680787306
0.11982857047216554 0.5012355166336117 -1.9601795509646736
0.028288136478910795 0.2846199534716644 -0.973386427174405
0.0 0.0 0.0
0.02043536320161085 -0.3086578962115712 0.9662858366593438
0.07619544163636278 -0.5872785007149612 1.940219009873784
0.14845226486458776 -0.786334570851544 2.932374827035676
0.2134700077648064 -0.882584051467073 3.9401152545778717
0.25229914654164753 -0.8880183379641465 4.953916754186227
0.25825816226134196 -0.8329902012586821 5.967005295542654
0.23886548362426732 -0.7451180811154899 6.977539039233294
0.2134231389748082 -0.6366718394049208 7.986068302353201
0.20577817464015616 -0.4994095398820948 8.991236712343666
0.23574130085725703 -0.30878666786555703 9.987251986812366
0.3082373916164192 -0.037086232116886914 10.96199162289266
0.40957723247752126 0.33681259024710125 11.899532572905375
0.5114302593291263 0.8290047027494919 12.780566846117742
0.578800582791204 1.452881186978836 13.577341892888487
0.5806785791718319 2.209281333826673 14.25274007689221
0.5032589604636806 3.0731298865845824 14.778257955307225
0.35554258227420843 4.000561534965763 15.161636496860332
0.16044507505670355 4.953302201204125 15.450654320126741
-0.0591658736549545 5.909927215131587 15.707671141443747
-0.28721458105574404 6.8577618607619275 15.988581123216395
-0.5151989733922417 7.783385041189046 16.335699791226318
-0.7411671232830445 8.6669339757354 16.779889193191835
-0.9683240716945481 9.475826277783218 17.348080331317156
-1.2039517884992252 10.15311087847633 18.064932616618925
-1.4615979175803482 10.612817026184674 18.93058203387618
-1.7561583844748208 10.77414078107899 19.886433594139373
-2.088424973370335 10.626838854245621 20.83254084441257
-2.441877128798811 10.236386033664935 21.699346218340455
-2.7966505029871414 9.688558211375131 22.472613579647135
-3.1426771515088485 9.04373192510406 23.192900874627117
-3.452764486851905 8.397548371113182 23.852140655154553
-3.7424956594435055 7.761799225666605 24.629766781475947
LINES 1 65
64 0 1 2 3 4 5 6 7 8 9 10 11 12 13 14 15 16 17 18 19 20 21 22 23 24 25 26 27 28 29 30 31 32 33 34 35 36 37 38 39 40 41 42 43 44 45 46 47 48 49 50 51 52 53 54 55 56 57 58 59 60 61 62 63
POINT_DATA 64
SCALARS NodeIdx int
LOOKUP_TABLE default
0
1
2
3
4
5
6
7
8
9
10
11
12
13
14
15
16
17
18
19
20
21
22
23
24
25
26
27
28
29
30
31
32
33
34
35
36
37
38
39
40
41
42
43
44
45
46
47
48
49
50
51
52
53
54
55
56
57
58
59
60
61
62
63
