# vtk DataFile Version 2.0
Vessel Segment
ASCII
DATASET POLYDATA
POINTS 64 float
3.5026192064710213 14.855764505827945 -9.32326271703232
2.548247597078725 14.517746251578025 -9.574434984975479
1.7628777172245045 13.96890417065823 -9.761748772777322
1.1306919454069249 13.174964350070933 -9.893795234541276
0.7326058440511529 12.246493154923291 -9.9620721851009
0.46826970229112613 11.267642343212888 -10.004659864198953
0.25807324696845885 10.276000144891269 -10.047754615006058
0.05362273939985188 9.284103793223059 -10.108889376146529
-0.15585596923149553 8.295600460791777 -10.200505702245662
-0.34523435335201175 7.308248866487754 -10.336850330870101
-0.43769713796235293 6.317854793284288 -10.5357753547597
-0.2959673765787753 5.349062114783927 -10.797516212849361
0.16915002576362692 4.48865985015998 -11.061417739469654
0.886567912113743 3.796863197078321 -11.247318829266431
1.7364783960935737 3.2486993129289368 -11.323425501787096
2.6445504315841055 2.797990923109158 -11.287341343306053
3.569073777582218 2.4080998568378105 -11.138218899264464
4.478214802779743 2.0502043959653995 -10.86533020380141
5.326005211295619 1.695829471082194 -10.435226377487753
5.957660592785375 1.3015989540314203 -9.745727703172351
5.888363291276699 0.9125391723800519 -8.843408266902813
5.200914686337712 0.6661988828577678 -8.126120254892067
4.3820848678141795 0.5061892094885625 -7.551481588748685
3.544585133088179 0.3897389896349914 -6.990511537855702
2.742511664139069 0.30957961841692666 -6.374496816806847
2.026576864730907 0.26753819922823313 -5.657301139199482
1.4434199862729884 0.2610086357478151 -4.827561331441401
1.0082365242983427 0.2731222730623832 -3.9114309416864588
0.6937211770895606 0.27623810116117337 -2.946939778677392
0.44775627500298204 0.24226274772919892 -1.963204268962288
0.22449691021012735 0.15217130061685827 -0.9776048175387003
0.0 0.0 0.0
-0.22823522582343178 -0.2077336227829155 0.9665235225216305
-0.4481497236752458 -0.4542516536142721 1.9258192149108346
-0.6403846094763394 -0.7153809947242049 2.8871534481857393
-0.7852360866093352 -0.9629279198652274 3.860407891655565
-0.8691804664702921 -1.1690086886223734 4.850215318299731
-0.8865251840975014 -1.309260143462556 5.854760038074149
-0.8385671780308582 -1.361778552087493 6.86676095543744
-0.7321190644695011 -1.3056420226280778 7.874007587521155
-0.5781335510380657 -1.120215509803529 8.859301378257932
-0.39136007383949833 -0.786951812416898 9.79886056194872
-0.1907499548029163 -0.2956065594370696 10.663141427029368
0.003281117179957252 0.3474336711558919 11.423050015785098
0.1728504669022158 1.1159941804236715 12.062851891883133
0.3074399724935796 1.9727959787938247 12.589018492417804
0.4036991795258761 2.882513626539696 13.027620965043809
0.4621346036728563 3.8184871149127897 13.414800983073107
0.4831686863395474 4.76020840045403 13.791800688156584
0.4656999501381683 5.6879007046947505 14.20223059195482
0.4062159529369124 6.574043360081781 14.692320620613957
0.3008258838091493 7.374737720700369 15.305903584867117
0.15241328479906804 8.02679888166274 16.067987035001078
-0.02433867900503173 8.467705400766292 16.96362180923237
-0.20757299655426156 8.675230062071131 17.93908973671215
-0.38158295219914323 8.681146387445452 18.9383171220923
-0.5420114201192763 8.535918470394348 19.92940893115574
-0.6918560861594131 8.279974734944249 20.89955470470727
-0.8376581147545972 7.938562594962299 21.843747553869786
-0.9879608522214663 7.5256149771333085 22.758694107731518
-1.150827343979801 7.051364399638207 23.63732434181025
-1.3420206448418932 6.50672151123117 24.487121362120295
-1.552711139506572 5.9400129503765475 25.25247218982368
-1.8322842763576652 5.272935697996487 26.004730789034127
LINES 1 65
64 0 1 2 3 4 5 6 7 8 9 10 11 12 13 14 15 16 17 18 19 20 21 22 23 24 25 26 27 28 29 30 31 32 33 34 35 36 37 38 39 40 41 42 43 44 45 46 47 48 49 50 51 52 53 54 55 56 57 58 59 60 61 62 63
POINT_DATA 64
SCALARS NodeIdx int
LOOKUP_TABLE default
0
1
2
3
4
5
6
7
8
9
10
11
12
13
14
15
16
17
18
19
20
21
22
23
24
25
26
27
28
29
30
31
32
33
34
35
36
37
38
39
40
41
42
43
44
45
46
47
48
49
50
51
52
53
54
55
56
57
58
59
60
61
62
63
