# vtk DataFile Version 2.0
Vessel Segment
ASCII
DATASET POLYDATA
POINTS 64 float
4.696956612309516 12.73331020039371 -9.517721714851678
4.1370115974827355 12.25223748073656 -10.249580200720008
3.450467081284203 11.72297073107616 -10.708307501042656
2.6809704451716527 11.095285557892664 -10.959781690185125
1.9457520371152874 10.400512214993933 -10.987987756561507
1.2883272465849716 9.636739915297666 -10.868803863719002
0.7325503960295027 8.815208758225445 -10.656278709764926
0.27888825600835604 7.943689862736944 -10.403579618929532
-0.07829179343463982 7.026292903411118 -10.158595546260754
-0.3345566999566346 6.064043527792397 -9.964956130083092
-0.45484009082776927 5.063259363740889 -9.851638921724211
-0.35854655730211604 4.054384302322377 -9.814338506061778
0.04608098952823093 3.126014610654442 -9.797701654616695
0.7307469663006779 2.3827941468781195 -9.720522872790413
1.557996933401367 1.818953111989781 -9.556947580861094
2.4333305190165166 1.3620187545432318 -9.324767929088084
3.3197145873527005 0.9530588770694931 -9.041067316597662
4.176853591911722 0.5620959236202964 -8.697568671334318
5.07028759553792 0.1199500260853705 -8.312886813211849
5.216504930426665 -0.07753926157889954 -7.458724679562206
4.426581883436217 0.3572311250303263 -7.022407822910351
3.6139923264152443 0.8904828610290655 -6.735240555844316
2.8098888831307653 1.4472994230219567 -6.46029990434842
2.0137158478070614 1.9874973631788342 -6.1397606967988985
1.218924346713434 2.4565499479679964 -5.718439423669702
0.4609950970839473 2.719926645526214 -5.097831367841153
-0.09609916380432676 2.6064005067968607 -4.26329262322534
-0.35450351836812316 2.1994199902187583 -3.3713391621024784
-0.40372169458716833 1.682044124679929 -2.5003088484637277
-0.3294121602539932 1.1321853650780618 -1.6509099735241295
-0.18298347718192406 0.5716175518903355 -0.8180442919623481
0.0 0.0 0.0
0.19195044295297836 -0.590149518710053 0.8026849949865352
0.37160144501907916 -1.2036488260193727 1.5905172398101723
0.5246031175285132 -1.8336261724832164 2.3709700614202336
0.6427380682098434 -2.4568260625809506 3.1629513216569953
0.7218574729026206 -3.0282351093118165 3.997522290081005
0.7587426907498571 -3.473036558929465 4.908303282854093
0.752141452471411 -3.6937549983880102 5.897615202531484
0.7098156351456009 -3.636374922365295 6.908876629539814
0.6464577600081507 -3.3346579836653647 7.875077264586795
0.5726611576912265 -2.863119886269994 8.770244726156214
0.4917674491136355 -2.2868836562411374 9.601255264190666
0.4030719812654026 -1.6499530513195744 10.385990259161611
0.30637995553450487 -0.9784920038551189 11.140448732629796
0.20332759996130612 -0.2860384494849754 11.874871737557916
0.09572155983777257 0.423733090465086 12.591817274333266
-0.01633912909379523 1.1548967157689831 13.286264943065287
-0.1343434500140464 1.9150836753951215 13.947780690937712
-0.25959421860810306 2.709890925889164 14.565720893531134
-0.3910974620379969 3.5386694791888846 15.136038513847382
-0.5230314498660382 4.392494243853648 15.668027831856403
-0.6457723367861565 5.256847647996831 16.184918787424184
-0.7481445204130085 6.1125952051011465 16.720304573502588
-0.8187843485944629 6.930858573431372 17.31590296276043
-0.8490429424673593 7.663568909396002 18.0166448399163
-0.8392200028326161 8.23961871604534 18.85108029956749
-0.8070635449307403 8.594012123264863 19.80058652873883
-0.7851440693000441 8.713667856096883 20.807345380717397
-0.8102120780157043 8.62750696567619 21.817953149900088
-0.9183377714920699 8.377632186703886 22.79288512102524
-1.1775054267728104 7.985467436787488 23.702360735873807
-1.5988925858733447 7.5177717112367075 24.45605933764021
-2.302452527768179 6.97874398676652 24.99847531147195
LINES 1 65
64 0 1 2 3 4 5 6 7 8 9 10 11 12 13 14 15 16 17 18 19 20 21 22 23 24 25 26 27 28 29 30 31 32 33 34 35 36 37 38 39 40 41 42 43 44 45 46 47 48 49 50 51 52 53 54 55 56 57 58 59 60 61 62 63
POINT_DATA 64
SCALARS NodeIdx int
LOOKUP_TABLE default
0
1
2
3
4
5
6
7
8
9
10
11
12
13
14
15
16
17
18
19
20
21
22
23
24
25
26
27
28
29
30
31
32
33
34
35
36
37
38
39
40
41
42
43
44
45
46
47
48
49
50
51
52
53
54
55
56
57
58
59
60
61
62
63
