# vtk DataFile Version 2.0
Vessel Segment
ASCII
DATASET POLYDATA
POINTS 64 float
-1.96486388882635 7.044387590777622 -7.7161296548151315
-2.1235131468642536 6.177283945593628 -8.21331985452712
-2.1887196469453123 5.175220310289477 -8.198334364116542
-2.169457410775904 4.215348130326342 -7.875834767851864
-2.08301255643251 3.313191042599013 -7.4206575099719885
-1.9092652813459252 2.4464521183311523 -6.924006838791038
-1.4722910475282476 1.643244971848172 -6.50505857517694
-0.5319488785163575 1.3086417705457143 -6.475737191054296
0.47549072018252525 1.2764974678181116 -6.590469372503563
1.4881466138472987 1.2934899283447072 -6.646644857716918
2.4981431963199183 1.3579793419160564 -6.585889622875081
3.4682426660155734 1.5592488202660735 -6.376269995081991
4.327277476421124 1.968507586257179 -6.030554537039908
5.045980132613603 2.5409936412878458 -5.602464225450992
5.659794106045583 3.1757073709789103 -5.103161519370387
6.166498509658386 3.711523524618129 -4.40931923275038
6.21442553040951 3.52555018664729 -3.4593329215978104
5.885669642660974 2.8324355370446135 -2.799750340336593
5.450999818491946 2.0240010058516074 -2.3712369178221246
4.934346722455576 1.1715275042572946 -2.1983636225056435
4.333959505155312 0.3811245577333739 -2.38231354949821
3.678785161379175 -0.21274311986776137 -2.8744532304551997
2.96736278816044 -0.632519671360036 -3.4625302558057958
2.1666869558994066 -0.9492683311155763 -3.9976098737758385
1.2481379130905101 -1.185771681177703 -4.350082127338086
0.25622895826923936 -1.3165994404667472 -4.2727924651705615
-0.5180052053911129 -1.315286637312305 -3.6312674290816216
-0.9991634545621898 -1.2305387833233672 -2.7440840226217778
-1.314234837499141 -1.0736662370937586 -1.793014144987446
-1.452767322341776 -0.7772686307136776 -0.8332473600573816
-0.9620727236619808 -0.2700189094973678 -0.1657607790882248
0.0 0.0 0.0
0.9981194730530193 0.06707197588041772 0.164737721145496
1.967030157689527 0.016567818718264092 0.45773882648159675
2.829695546506836 -0.14426962460007753 0.960285914114241
3.300273122848166 -0.47233022808013586 1.7788073557726474
3.248035633868941 -0.8492723977154155 2.7163903266239964
3.0212122841731115 -1.1337690595367371 3.6629793100828985
2.7864029304212634 -1.2643606468821118 4.640232387097068
2.581938447951589 -1.1823392078630521 5.629012374709312
2.3577301946090508 -0.8719450711592247 6.566795474128221
2.027499296886589 -0.3851724757865677 7.39146946081264
1.5502400068283309 0.19803259050605893 8.06873169484637
0.953041519157976 0.82083354876329 8.601027566055231
0.29195429636537046 1.4662380438120541 9.01963307028694
-0.3844128327608759 2.13798299464041 9.36675969035934
-1.0507221583252535 2.836585108945745 9.678793109074812
-1.7065152168213278 3.552341116254472 9.973674864980266
-2.3559887362615 4.278589380592233 10.256858513397217
-2.990801839343975 5.015932917014599 10.544470186633927
-3.5841857550383076 5.764424499516257 10.885530491301006
-4.0770699719661545 6.499249844490875 11.377901745364557
-4.349289845541553 7.101516723516386 12.138710815276513
-4.32444584491565 7.36796455872982 13.110433773000528
-4.1248901998120315 7.28241779843605 14.098348069380293
-3.858543086471777 6.923919610266775 15.00703620289061
-3.5375438395986647 6.335446714410439 15.765183160308196
-3.1029100950546136 5.566575942757617 16.25503053869219
-2.5016781019132073 4.7625124448983644 16.35905094426937
-1.7897287102585815 4.064721457926271 16.178102722536554
-1.0219776325501333 3.451869173541861 15.924867610656316
-0.21804305654812065 2.8535071151520466 15.778922274311407
0.5610425468778634 2.232124854512895 15.91074888174792
1.2055568481097767 1.6071877095927718 16.39157892440204
LINES 1 65
64 0 1 2 3 4 5 6 7 8 9 10 11 12 13 14 15 16 17 18 19 20 21 22 23 24 25 26 27 28 29 30 31 32 33 34 35 36 37 38 39 40 41 42 43 44 45 46 47 48 49 50 51 52 53 54 55 56 57 58 59 60 61 62 63
POINT_DATA 64
SCALARS NodeIdx int
LOOKUP_TABLE default
0
1
2
3
4
5
6
7
8
9
10
11
12
13
14
15
16
17
18
19
20
21
22
23
24
25
26
27
28
29
30
31
32
33
34
35
36
37
38
39
40
41
42
43
44
45
46
47
48
49
50
51
52
53
54
55
56
57
58
59
60
61
62
63
