# vtk DataFile Version 2.0
Vessel Segment
ASCII
DATASET POLYDATA
POINTS 64 float
-2.9364676499614344 12.29519932403655 -7.342388983150422
-2.9543419637278734 11.464580289486852 -7.976954008276884
-2.8879017524849955 10.593555749717867 -8.40799324792067
-2.732025863140904 9.61407092552021 -8.664512092261662
-2.494746491436188 8.630294237905728 -8.687321661979775
-2.2054947785996837 7.670926692537018 -8.529042766498975
-1.8890990472695999 6.74808985415929 -8.250729197706445
-1.554788176906773 5.852172549522483 -7.9117241450112665
-1.1913364681523781 4.970933821276834 -7.564245029201639
-0.7628180460497255 4.1034594037173395 -7.259516022080064
-0.20321000072564382 3.282401937803412 -7.057654779937464
0.5493996765297589 2.6059349168602375 -7.010775284606526
1.4622240445602825 2.1726101233101964 -7.089463143937517
2.4488440878398325 1.9690250477699152 -7.206631734532818
3.4580134490482792 1.9261413312887667 -7.300071847095811
4.469774656722562 1.989556301269394 -7.338254770034903
5.474016463202713 2.127515656045438 -7.299313290904095
6.4591540322596686 2.3222884399287933 -7.153885908515346
7.391925842416786 2.564972263193211 -6.843696398500988
8.143760853946441 2.8472800834667207 -6.225544228157858
8.255015996605177 3.0845407018899715 -5.2577701376222326
7.700675125233877 3.1789985332234076 -4.414460336486811
6.886265629724159 3.1743266488587563 -3.812760918169108
5.968111358812895 3.0941823459267233 -3.3887446098880796
5.012046587441739 2.94137069174563 -3.086089923714079
4.050946055833987 2.7127022169501203 -2.8554481266059524
3.107109968880717 2.402604707449993 -2.6498627479148524
2.202449504677324 2.0064307339783682 -2.4180402532452074
1.370406359218011 1.5242188440494728 -2.0959998685226098
0.6719030845875797 0.977190584907075 -1.6057597528982146
0.19782298000103057 0.43589650285655057 -0.8930084548087133
0.0 0.0 0.0
0.030193658542218234 -0.2878626503678792 0.9717634602500748
0.21142286559443324 -0.4464530445285039 1.9570598548560634
0.49219660071114085 -0.5055990281937702 2.9300915337190587
0.8446905252390381 -0.48870260387644143 3.8811639774761995
1.2541017149135236 -0.41192282519150697 4.8062509319244295
1.7095247517552876 -0.28984924466330614 5.7046273285024744
2.197045618264595 -0.13895222055270096 6.581534135606051
2.695682341440886 0.023321731599447285 7.450076254753853
3.174861262433381 0.1791864447961012 8.330706522266937
3.588491247182097 0.31328859105520424 9.247283364962822
3.86804811896401 0.417734624237102 10.216567331533291
3.9341565101391525 0.514269394780117 11.22353898981678
3.7392932417662488 0.6737529684552527 12.205222620082408
3.315943139407893 0.98888012071666 13.070238679774645
2.766543850411169 1.5015528584443811 13.750278727772775
2.1851855082017626 2.173859489040396 14.23851131050137
1.6109563833456269 2.940470028972204 14.572481894138315
1.045901059141507 3.752026550048452 14.798995525465724
0.48076216556005846 4.579262121664532 14.959205542634463
-0.09475456886665429 5.404722616578262 15.088743747303022
-0.6899098405657896 6.215837712009322 15.220192792184267
-1.3119207433575297 7.000426208651172 15.384069240369344
-1.9654494783633443 7.744054905753152 15.605692607268617
-2.6519420287471136 8.429810941790894 15.90167657184033
-3.3691587380027537 9.04010215476873 16.278765391582084
-4.10994577675069 9.556980547820517 16.7403115691158
-4.857406799929315 9.963772764867414 17.292292656631894
-5.5740017437917 10.256316401168606 17.94790276870626
-6.191713005704937 10.463253649312874 18.723080192356722
-6.6169852978607695 10.655216786830739 19.63431773627145
-6.794210131722821 10.875832849972065 20.56699611926973
-6.715758760420205 11.19588841668923 21.558793327427736
LINES 1 65
64 0 1 2 3 4 5 6 7 8 9 10 11 12 13 14 15 16 17 18 19 20 21 22 23 24 25 26 27 28 29 30 31 32 33 34 35 36 37 38 39 40 41 42 43 44 45 46 47 48 49 50 51 52 53 54 55 56 57 58 59 60 61 62 63
POINT_DATA 64
SCALARS NodeIdx int
LOOKUP_TABLE default
0
1
2
3
4
5
6
7
8
9
10
11
12
13
14
15
16
17
18
19
20
21
22
23
24
25
26
27
28
29
30
31
32
33
34
35
36
37
38
39
40
41
42
43
44
45
46
47
48
49
50
51
52
53
54
55
56
57
58
59
60
61
62
63
