# vtk DataFile Version 2.0
Vessel Segment
ASCII
DATASET POLYDATA
POINTS 64 float
1.4070812413442986 11.279001364227144 -4.81528285319203
1.0195393313089836 10.414943184474467 -5.195463553960216
0.6173330541372147 9.578555277464 -5.592871345071104
0.2038826538981627 8.733727362187722 -5.970976411031209
-0.20264464250631917 7.85845041613426 -6.282769698025212
-0.56640501160922 6.930157430656355 -6.465033377213119
-0.8315628063195057 5.953092549034389 -6.44729761980187
-0.9600874348204524 4.978440725901691 -6.204057299334662
-0.9792937316978565 4.048984905390556 -5.799066199026887
-0.9282054952935169 3.132782823875809 -5.3668123608793
-0.7338858394750868 2.181050538261066 -5.085297623812545
-0.24908188763099537 1.2962314804651383 -5.067461239630579
0.49732446744511544 0.623283732824216 -5.184178605477795
1.4120502674031374 0.20637116903444844 -5.297967256549353
2.4156232933404684 0.13278936934473728 -5.381874808988658
3.3687488576786846 0.46207215334221596 -5.440289486578739
4.181004700667481 1.0672421099485652 -5.445278543357264
4.88823428797104 1.78855982966582 -5.357425032128154
5.53898056298846 2.5337292817337 -5.135756815148475
6.130245817005521 3.2252668321752216 -4.694127247310673
6.3284526952526265 3.5171611951824753 -3.8030331603706253
5.798218280259196 3.1331749661163437 -3.0346472375579334
5.0780572349526985 2.6118927036675963 -2.548984252147142
4.2801972824263315 2.0434161136662086 -2.2931023668887165
3.451224436739904 1.4634276877837735 -2.3207744409579036
2.6228307890703695 0.9343817806814712 -2.5695435328508953
1.7594833648364077 0.48616101890676594 -2.85643926215825
0.8203278350793978 0.13225935838729608 -2.9869202736889764
-0.11643917870456674 -0.08723692292301971 -2.7015530505208725
-0.638694537949097 -0.12746993238203952 -1.855816272814347
-0.5306022347160619 -0.07180770870070875 -0.857017527921511
0.0 0.0 0.0
0.75428107303837 0.06412143202828342 0.673716892083362
1.5729787009961889 0.11016011201424626 1.2712175483739527
2.291732052994759 0.12199229069241167 1.9834272223807625
2.6714766459360813 0.07342941518004702 2.9160236945990365
2.6989231062847727 -0.01855691807825622 3.9241736850603557
2.549002520437954 -0.09107885953658605 4.924589036449827
2.335093565552954 -0.05307506045500431 5.914771081767688
2.1097062810224485 0.21315487902488714 6.864936441069114
1.869316960385852 0.7393252049060727 7.695849376994859
1.5803254857747606 1.4283166294534242 8.380830608673364
1.2195813086977167 2.1916285558166835 8.942452188385156
0.7959310198036844 2.995765386513277 9.392292845927313
0.342858411389878 3.8387488339157505 9.727777894052744
-0.0965848010678449 4.725341780187545 9.950191230530233
-0.4946538980603018 5.647994188941484 10.089284322064527
-0.8696594982315258 6.583103638052524 10.209093324001262
-1.2805358359884416 7.494141181788243 10.381821020695078
-1.7629029587779936 8.347135738300613 10.642832436191382
-2.287510042047634 9.138898522453163 10.998563351772967
-2.7881685894409047 9.874513640870267 11.48376291551671
-3.1360370484846767 10.488434965093846 12.204581102861493
-3.136085927333806 10.69887545969988 13.182514034027673
-2.9197393552996003 10.448178757963138 14.13795269541161
-2.706974897229409 9.981695598286052 15.012696462458493
-2.543386208752234 9.422974039945487 15.843490320168025
-2.3826495613699668 8.802525124431329 16.629628049673872
-2.0823964061304086 8.084590126856291 17.275038924660354
-1.4448129058002979 7.327853134823498 17.369219719024375
-0.715860202096805 6.720320969427152 17.011673755374968
-0.001169675765922488 6.110404720105181 16.63118990918898
0.6723366080443693 5.382134796847969 16.459408748880193
1.2002780782025595 4.545479020826691 16.681653987305737
LINES 1 65
64 0 1 2 3 4 5 6 7 8 9 10 11 12 13 14 15 16 17 18 19 20 21 22 23 24 25 26 27 28 29 30 31 32 33 34 35 36 37 38 39 40 41 42 43 44 45 46 47 48 49 50 51 52 53 54 55 56 57 58 59 60 61 62 63
POINT_DATA 64
SCALARS NodeIdx int
LOOKUP_TABLE default
0
1
2
3
4
5
6
7
8
9
10
11
12
13
14
15
16
17
18
19
20
21
22
23
24
25
26
27
28
29
30
31
32
33
34
35
36
37
38
39
40
41
42
43
44
45
46
47
48
49
50
51
52
53
54
55
56
57
58
59
60
61
62
63
