# vtk DataFile Version 2.0
Vessel Segment
ASCII
DATASET POLYDATA
POINTS 64 float
1.8269454348970495 11.024553651076587 -7.580054171801999
1.2209423556664258 10.329040973114196 -8.076200089152834
0.6444542566499222 9.636267894892761 -8.456149745534992
0.07938580145496893 8.86269733885312 -8.79915457077715
-0.41289600070907195 8.024376024654146 -9.090532536301565
-0.7888191783382614 7.113332695367555 -9.328544812676858
-0.9932535985982143 6.1339319367947915 -9.490776326710373
-0.9764490425052175 5.1215103499237165 -9.512994392925924
-0.7685042370919626 4.150480849902197 -9.313683266179416
-0.49349036822008957 3.26931287812814 -8.894576332787794
-0.24414459015841428 2.4517701213784666 -8.348109940579366
-0.006593496413080564 1.6377889069502602 -7.791017638571362
0.35073387386724714 0.7956454257405464 -7.3553709537533924
1.019008143614941 0.059991529634186795 -7.1842882302319975
1.9407021694875968 -0.35747195711745705 -7.211983684423074
2.9414485009203095 -0.5171165538282112 -7.240704086736407
3.953236458924437 -0.5366490720249505 -7.174708466865602
4.94652521891056 -0.48706296149857065 -6.975965039157866
5.893300460016099 -0.4127338578194879 -6.620370102495459
6.745228000185086 -0.33880851794659367 -6.080665500154799
7.36696743002209 -0.26565888352794514 -5.284935950724893
7.060547418822393 -0.09907173380408418 -4.381273044060763
6.119043173429908 0.15431294169001442 -4.073934247854742
5.148381176685835 0.4372709817631843 -4.008769876800916
4.175161390444843 0.7227691948820681 -3.9893547074617284
3.1941861916392886 0.9573032314881427 -3.883889701405157
2.2208511382536105 1.1000469896795715 -3.6377000539888464
1.2831728544910086 1.1486140491641994 -3.25517573133153
0.45801236057476524 1.063062019969781 -2.675355508072619
-0.05201468907037089 0.789906539012481 -1.849262813974148
-0.14924470317770314 0.4016953006777517 -0.9191578887654268
0.0 0.0 0.0
0.25125310139451984 -0.38241256113562366 0.9054820663583036
0.5225809966316989 -0.7348716904747111 1.8174038538694122
0.7587978452919225 -1.045313208703396 2.753788556819426
0.932711456185733 -1.300440787631363 3.720117411295254
1.0547486193105775 -1.4969920975613793 4.707912286922723
1.1576499103073 -1.6410453130708191 5.706937391148645
1.2676891611319445 -1.7294725152355133 6.711544953532625
1.3890459952947856 -1.7377660923882512 7.718614083244985
1.506216257114469 -1.6192412462609906 8.718952775596229
1.5853950292069323 -1.3150233245844376 9.682539426992255
1.5927318507518633 -0.804278953828028 10.557860208135258
1.525172026506843 -0.13952386816814766 11.320652403617428
1.4035916223015166 0.606577424668559 11.997152426540381
1.2466678621472749 1.3862941118126262 12.626992301072967
1.059589619505103 2.1754464150351662 13.236644020018879
0.8347580704433563 2.9654587286992657 13.832110539840555
0.5582231614664908 3.758112333049441 14.40177741380273
0.22613800030040562 4.556872818306151 14.931822762805373
-0.1483666575243505 5.359775476015176 15.426266414235206
-0.5434922577216629 6.1565055301232725 15.914700367101906
-0.9416247494141087 6.929408698792764 16.4374483429287
-1.3329624022752884 7.6573541104379 17.02568199789953
-1.7103757490957743 8.316519760391825 17.697943597493374
-2.065578907118105 8.876185070332669 18.46536525316606
-2.385738917598843 9.287981885078201 19.334629412800002
-2.648200910094504 9.475698653344294 20.294775973766974
-2.828403617459158 9.378034897256548 21.286633375909748
-2.930275049806011 9.03810176520109 22.23607764263277
-2.9938110766898554 8.570805944464235 23.134615676455493
-3.0913937392259907 8.118033240022978 24.03857727348953
-3.3318576524169967 7.913278049213282 24.972729417657863
-3.8169514953297843 8.297795145020126 25.80524518330861
LINES 1 65
64 0 1 2 3 4 5 6 7 8 9 10 11 12 13 14 15 16 17 18 19 20 21 22 23 24 25 26 27 28 29 30 31 32 33 34 35 36 37 38 39 40 41 42 43 44 45 46 47 48 49 50 51 52 53 54 55 56 57 58 59 60 61 62 63
POINT_DATA 64
SCALARS NodeIdx int
LOOKUP_TABLE default
0
1
2
3
4
5
6
7
8
9
10
11
12
13
14
15
16
17
18
19
20
21
22
23
24
25
26
27
28
29
30
31
32
33
34
35
36
37
38
39
40
41
42
43
44
45
46
47
48
49
50
51
52
53
54
55
56
57
58
59
60
61
62
63
