# vtk DataFile Version 2.0
Vessel Segment
ASCII
DATASET POLYDATA
POINTS 64 float
-2.8993304218281977 8.77984435215943 -9.812419204825034
-2.4081603663867193 8.251682548810889 -10.570605241495441
-1.8971382871702012 7.45388536771518 -10.790533639672597
-1.5117073519449846 6.587031034169254 -10.43893030592592
-1.313989004687128 5.828862556142826 -9.795333179923567
-1.2261887829769618 5.122089319608457 -9.072724010964285
-1.188097343355756 4.413803988306158 -8.347299496344785
-1.144141466326018 3.673765155129236 -7.654684715460252
-1.0182208244452646 2.8911454692063865 -7.0225606587946805
-0.6620417954952137 2.1029721397816643 -6.493057958399956
0.13951643825970556 1.5896676575904571 -6.174262532381155
1.144578408049103 1.6479458200675867 -6.081393363316543
2.071250163618209 2.0561281509891782 -6.054795783426361
2.895473983827628 2.646518399632245 -6.027013152629671
3.6236796851385376 3.350877434245372 -5.977704881182755
4.267026659460922 4.130360277831377 -5.892011346023702
4.837493155991909 4.95378142117628 -5.730234210039934
5.325538900522646 5.76731597686517 -5.369361892497846
5.522416038363853 6.1837658120692875 -4.514581142521796
5.2712743513858245 5.785982604355649 -3.6129692605700403
4.888066683530294 5.038870588723122 -3.0481821840081853
4.490043147175094 4.137477283063777 -2.815290644021285
4.129050985299501 3.1933123237971945 -2.887042968193179
3.8120088128605176 2.2683479017657993 -3.156991408235148
3.501396807661891 1.3615958080957289 -3.489988133188401
3.12693429834347 0.4547021460985988 -3.7456818177820246
2.5869462712361977 -0.40087685503951315 -3.744022366824262
1.8599385094658114 -0.9501344488659385 -3.3163175407320433
1.1614738749560745 -1.016281429571258 -2.58789324563414
0.626465963759777 -0.7743233984588391 -1.7618523977267107
0.24787633379447288 -0.4007398397835653 -0.8982867021812762
0.0 0.0 0.0
-0.11362340595692805 0.3522204471607224 0.9439395875346314
-0.011263736723207685 0.5750827212070772 1.9264720337830437
0.4915287200711336 0.5796963677787094 2.799437253246184
1.3323465226448925 0.45720448685483017 3.3530944069788196
2.2667438768087504 0.37056770565312414 3.738319084534191
3.1921293630723486 0.3603014384549909 4.153547675307785
4.01821362980007 0.4134723979356437 4.738314182625034
4.590562242247699 0.4923148282980986 5.568342639943466
4.786000302055313 0.5647444709405676 6.558681275645848
4.662128454789085 0.6407215346450903 7.561695590295975
4.3363014078730915 0.7515575995682429 8.51559474723167
3.878544012162685 0.9223625255482432 9.404403329181855
3.3174218796350843 1.1682839947547048 10.212606575190712
2.6580981762599003 1.491106552638823 10.912236243846573
1.90439463779404 1.874114703824136 11.47220078243504
1.0815569231066917 2.294570821209363 11.890468927489755
0.23264046906832286 2.749075396747937 12.209822752066362
-0.6016327829374648 3.2539969018251464 12.48960689528827
-1.3946630557385205 3.818843825278966 12.774739232227233
-2.143123283987159 4.426244158206111 13.091269828482888
-2.8603697281016043 5.041823763614913 13.459878273104
-3.549661694783098 5.636114114861678 13.907967915016409
-4.190805627296705 6.190582141595725 14.464891738599514
-4.744950937914896 6.692451280878726 15.149952758366464
-5.165056407184741 7.123072503556271 15.965987270817772
-5.398578825569576 7.440592335404648 16.899527821315335
-5.391390453922801 7.5609499666756985 17.904690463272882
-5.141463415801325 7.395125067422306 18.870981672655468
-4.756832744684548 6.950208975081502 19.695868151073622
-4.387559256620582 6.293331940448874 20.380985766919153
-4.160403701443159 5.524645019004822 20.948508455635274
-4.38708028580654 4.6508506214659215 21.469377764183186
LINES 1 65
64 0 1 2 3 4 5 6 7 8 9 10 11 12 13 14 15 16 17 18 19 20 21 22 23 24 25 26 27 28 29 30 31 32 33 34 35 36 37 38 39 40 41 42 43 44 45 46 47 48 49 50 51 52 53 54 55 56 57 58 59 60 61 62 63
POINT_DATA 64
SCALARS NodeIdx int
LOOKUP_TABLE default
0
1
2
3
4
5
6
7
8
9
10
11
12
13
14
15
16
17
18
19
20
21
22
23
24
25
26
27
28
29
30
31
32
33
34
35
36
37
38
39
40
41
42
43
44
45
46
47
48
49
50
51
52
53
54
55
56
57
58
59
60
61
62
63
