# vtk DataFile Version 2.0
Vessel Segment
ASCII
DATASET POLYDATA
POINTS 64 float
3.0035261821864814 11.821413040544911 -8.503495539235553
2.3003406747900095 11.066737204112625 -8.68698740732414
1.7143422287468049 10.3345764218381 -8.944744484066872
1.1533385086976775 9.528680244484224 -9.237585529043631
0.6609667499834807 8.683619458144657 -9.502365728122703
0.23161446754740417 7.781505541788132 -9.677042495628086
-0.12270525845585613 6.8315915540474155 -9.693910719199826
-0.38575186283590734 5.8678708327808895 -9.520632421272001
-0.5438733019769182 4.920498460590825 -9.19480420834659
-0.5783876037908501 3.9878707256855344 -8.797419543193769
-0.4545352853618243 3.0545064538974027 -8.42070774633438
-0.13634560723861974 2.1305885137173113 -8.151557135330512
0.36529027097122674 1.2605951627226664 -8.011665151014498
1.0028312204452745 0.4742140478526874 -7.949105590666719
1.738134802406794 -0.22282304129739244 -7.90000305435374
2.549212541596894 -0.8262840657318269 -7.816707580010898
3.4202907746614857 -1.324216354080922 -7.6682088287609105
4.333106615652105 -1.6989237105769184 -7.433752822696703
5.261178623850533 -1.929024019180653 -7.096119303871186
6.162519276865264 -1.9892644748210762 -6.635687309390069
6.95242514803583 -1.8415545172072805 -6.018817289848201
7.376152870893928 -1.424084644361227 -5.209121972236989
7.060100420386485 -0.8705277151894442 -4.435846035343274
6.277750447648611 -0.4504160360890432 -3.9435366787715185
5.3564382189732545 -0.16452654040796902 -3.6309946496991885
4.3863062660449055 0.028574771335447374 -3.4060509432714667
3.4000954636456284 0.15225331821618093 -3.202430210103034
2.4206394728832685 0.22015413991946586 -2.9473392314714713
1.494398970493059 0.23923363283332416 -2.535667735763864
0.7405433705290676 0.21037814897160853 -1.8613347740124173
0.2639953323987302 0.131986809199278 -0.9704546389247027
0.0 0.0 0.0
-0.15349948512607986 -0.1912779310116911 0.984365786526291
-0.25496504608236126 -0.44480812451489565 1.9615204306086744
-0.3309788028845422 -0.7576590588923844 2.923560758637028
-0.3864125279518753 -1.1198599596730834 3.8697064786655244
-0.4118566340444481 -1.5126933909457982 4.804726653197765
-0.39194240204875763 -1.9095460533293467 5.738285550611676
-0.31623015646372377 -2.274925519632351 6.681690614377119
-0.18498069686626437 -2.5676701373110347 7.644068713985446
-0.009060424747914499 -2.7427456746311822 8.627520388742612
0.19182180641317795 -2.753373214994708 9.621458299093169
0.3896595515520355 -2.5584405561253347 10.596535130337747
0.5509300993055921 -2.1420630147404762 11.506599947558652
0.6461646730462424 -1.5333383051940048 12.311811681595177
0.6593545625926646 -0.7912599181968939 13.00293801669217
0.5864909864158242 0.028870526981849345 13.595361699149072
0.43066897521701497 0.8900338733985298 14.1083910510199
0.20349768869430293 1.7736266710091717 14.552042574444554
-0.07077612047614604 2.676483764559922 14.924635241401202
-0.3567678459995776 3.602031172646349 15.225953614786238
-0.6209242794809192 4.5497406935103815 15.47397649899755
-0.8443007351553539 5.511113031105277 15.708810099196544
-1.0280257212702282 6.469158303925247 15.9874846084193
-1.1841554269445107 7.392978786004096 16.375954454349703
-1.3235064852461158 8.225509628735916 16.937294981304618
-1.4480458854274894 8.87179130974912 17.707370914257027
-1.5504545126915348 9.234454574420699 18.647433599987686
-1.6260989760648688 9.29758222132939 19.656129166909707
-1.682411023856048 9.128721562180017 20.654493012369425
-1.7358942779718356 8.809592633190316 21.614904708366065
-1.8212672047077483 8.406839243700064 22.55071450140317
-1.9445283661099175 7.983743123882485 23.42599476653064
-2.386091439209601 7.7601487359661485 24.34392036781255
LINES 1 65
64 0 1 2 3 4 5 6 7 8 9 10 11 12 13 14 15 16 17 18 19 20 21 22 23 24 25 26 27 28 29 30 31 32 33 34 35 36 37 38 39 40 41 42 43 44 45 46 47 48 49 50 51 52 53 54 55 56 57 58 59 60 61 62 63
POINT_DATA 64
SCALARS NodeIdx int
LOOKUP_TABLE default
0
1
2
3
4
5
6
7
8
9
10
11
12
13
14
15
16
17
18
19
20
21
22
23
24
25
26
27
28
29
30
31
32
33
34
35
36
37
38
39
40
41
42
43
44
45
46
47
48
49
50
51
52
53
54
55
56
57
58
59
60
61
62
63
