# vtk DataFile Version 2.0
Vessel Segment
ASCII
DATASET POLYDATA
POINTS 64 float
1.0993960151808977 8.783284205560454 -8.232155552046992
0.29163714800789214 8.381761317479308 -8.757430415525498
-0.43246573774351416 7.733825059416438 -8.887672313290377
-1.0498557109398896 6.934257048397857 -8.776184992556487
-1.511476681548022 6.072013928933145 -8.508212282544234
-1.829755537838895 5.173837107800858 -8.16114875558845
-2.004355630761614 4.249590731065885 -7.7818644412358235
-2.01193525072465 3.3081391560692124 -7.405241696722881
-1.7802336925987243 2.3814095581296955 -7.070134007302837
-1.131370269566754 1.6440639988505361 -6.85716801976212
-0.13463687250578393 1.5057719353950663 -6.84492668607222
0.8257318807516645 1.8255661328364596 -6.907407728354998
1.7172124179579953 2.3079996296877656 -6.945839659609733
2.582559092821923 2.8371208823450256 -6.925708679945132
3.450171639086008 3.353191763724532 -6.825732973411893
4.33444464219151 3.8069058699363576 -6.623406294059386
5.2333540400516805 4.131870912358782 -6.286741818380286
6.0954056962629135 4.193886967161973 -5.76259882365694
6.595925140628745 3.7027427491166165 -5.0614903352846
6.365949410155877 2.84620292975295 -4.576974999829853
5.77311799139429 2.0492584108449448 -4.378168020956452
5.029453845629504 1.3608611884126933 -4.347737097951961
4.198350736524053 0.7850401115770919 -4.426124126822433
3.303756607702507 0.3290021300685494 -4.568959187852787
2.353730018763376 0.009357246865325679 -4.723468351911723
1.3543011283411952 -0.14071209984871727 -4.796020930406233
0.3697556901514582 -0.07130584848714416 -4.583227099239846
-0.3186424954786851 0.15656830256750334 -3.8857193254895113
-0.5763457941957387 0.32529756256289455 -2.920977052019177
-0.5526748005415386 0.3545247120223015 -1.9083445534259051
-0.3431762460566497 0.24255496327598414 -0.9228297947964508
0.0 0.0 0.0
0.4299082144015955 -0.35384378600557725 0.8477832599382272
0.8885510646456687 -0.7850355138353182 1.6433841482859919
1.30806419828848 -1.243276685101727 2.4454066444038434
1.6225260746086294 -1.6549469869897495 3.3170609559974014
1.7993317539262461 -1.9317008971056788 4.27597555843966
1.8641251666261172 -2.0177829530310984 5.283922757053473
1.868449465607853 -1.9114395342839818 6.292239681003036
1.8476607423138967 -1.6367816196660665 7.268291459727438
1.8142380310227824 -1.2208095660451 8.19266914669428
1.7637420722255581 -0.684686858663936 9.052208233520796
1.6787447112126554 -0.04263195962341214 9.832726194767579
1.5321947975812338 0.6929806226529234 10.515283235644311
1.2969824025152425 1.5040680350432736 11.076577306293748
0.9629938871407573 2.361054348402437 11.503678000507291
0.5480709428162333 3.2333482022289717 11.813302270559923
0.0854985476262295 4.104599286552652 12.050315084558845
-0.39256695474158315 4.971788133584442 12.271587512065137
-0.8578744058731844 5.832850927788646 12.538461381863726
-1.2861099774410596 6.673688187995771 12.910288163923596
-1.6575950945395477 7.459408678707578 13.432434482703773
-1.9635373795644961 8.13798896208535 14.12054180134312
-2.209637797834109 8.653173679385233 14.95800369723375
-2.410145359835861 8.949517002799187 15.90606868915096
-2.575969317775761 8.972673671576882 16.905019097474657
-2.709683396155963 8.69652778702162 17.87029965775833
-2.810716224843705 8.160059315387334 18.724095644044453
-2.884465263132698 7.455589467274217 19.449818753609694
-2.9433231759493728 6.674694859129399 20.094628534611658
-3.0032149205346412 5.89068263682082 20.736097902284165
-3.085753930287215 5.197064559022411 21.475497697100344
-3.205740418006108 4.766235622652352 22.34611112961581
-3.3768753869251515 4.771852994025097 23.376804444082815
LINES 1 65
64 0 1 2 3 4 5 6 7 8 9 10 11 12 13 14 15 16 17 18 19 20 21 22 23 24 25 26 27 28 29 30 31 32 33 34 35 36 37 38 39 40 41 42 43 44 45 46 47 48 49 50 51 52 53 54 55 56 57 58 59 60 61 62 63
POINT_DATA 64
SCALARS NodeIdx int
LOOKUP_TABLE default
0
1
2
3
4
5
6
7
8
9
10
11
12
13
14
15
16
17
18
19
20
21
22
23
24
25
26
27
28
29
30
31
32
33
34
35
36
37
38
39
40
41
42
43
44
45
46
47
48
49
50
51
52
53
54
55
56
57
58
59
60
61
62
63
