# vtk DataFile Version 2.0
Vessel Segment
ASCII
DATASET POLYDATA
POINTS 64 float
-6.051624851051377 4.716112516290135 -9.244286248091646
-5.582387459959233 3.784541582984145 -9.29004692217037
-4.940367317549802 3.084410697972153 -9.05081579013186
-4.2726667105357485 2.419922481965147 -8.659597133837343
-3.6549080584338545 1.7758472449408143 -8.177585316496447
-3.0451687875711233 1.1472104705155206 -7.665301843152181
-2.2695001645997266 0.6763766221317432 -7.215962877008361
-1.2955226788896093 0.6442320074708632 -6.954314823636987
-0.3416677813609448 0.9556580322914866 -6.812290768333036
0.5471055208041582 1.43081993742541 -6.697200397597971
1.3784941174322565 2.002326432584684 -6.590898658169045
2.171316816529657 2.6288308570946373 -6.49979540354476
2.961260423831574 3.2608890719218446 -6.422961414301486
3.781472346438976 3.852331079276774 -6.341339499387461
4.64106499705749 4.378744905426478 -6.227420431412455
5.534861935775908 4.826625094979341 -6.051403442722422
6.441273724465617 5.168518199604029 -5.761010849429165
7.2686798535317765 5.310843806664885 -5.203818239746609
7.360745339148938 4.993105375807779 -4.281152713385091
6.7682402507177235 4.491084895427729 -3.6152100352948358
6.034414228927495 3.9515405580273755 -3.1729281062074657
5.250836739865906 3.3561861738282435 -2.929851098984126
4.4597290602835375 2.7226949089394457 -2.90822954777118
3.661287740865423 2.1247506685458473 -3.0905085074273013
2.818842181107881 1.6447957279204732 -3.3876383332140154
1.9036261791677436 1.3184363610475063 -3.6780917372866333
0.9191050141390359 1.1272815495256958 -3.821614343218308
-0.058185594130854806 1.0000761248982781 -3.6012359329116364
-0.6497720058618774 0.8126607561097423 -2.819102064603187
-0.6482353822848083 0.5518628574189878 -1.8384209961873728
-0.37314360414029263 0.2766613582261875 -0.9019431504579224
0.0 0.0 0.0
0.42891868409606715 -0.29322759763800343 0.8713918410916127
0.9467135833990896 -0.6237099745676885 1.6783675020987787
1.5993272544615853 -0.963056574397381 2.376342528494156
2.3470401763737034 -1.2214163632129706 3.0114997117432836
3.0689022438141733 -1.3165562524924155 3.7164257055016554
3.6235744132872862 -1.2201458099486284 4.558477952391357
3.9477758927615967 -0.9865342226675164 5.489956149348959
4.060211049321023 -0.6918907191235927 6.453611684494095
3.980763777535339 -0.3885711462870698 7.417944646505088
3.7043594485602944 -0.1118440914353725 8.353272576322214
3.2295426164754364 0.13968485645768833 9.212913364516325
2.6244607196208536 0.478383905281831 9.952500856545488
2.030766328228161 1.031978639614165 10.559134360644432
1.5116798898598998 1.742853622396755 11.063302637144208
1.0059911516059101 2.4992610749509283 11.512190365724763
0.4193424604139923 3.2164196296104177 11.924651060195346
-0.30275434281393476 3.8290566992918817 12.287046776500455
-1.1216107597118217 4.344084173440434 12.59272135956214
-1.9522622945613939 4.8502009635877705 12.881226113730564
-2.7192445708440203 5.422743295081601 13.216817940764356
-3.3931602454487355 6.044472178448457 13.650460980235598
-3.9903273130590384 6.640842056590939 14.212763740780897
-4.5288046011520695 7.111818926974824 14.93105019683644
-4.9729491260771095 7.28938130934264 15.822232316532117
-5.1882192686210065 7.008539634087301 16.766494642924446
-5.1676989398681 6.4351633393867695 17.60230151466392
-5.049261171753402 5.777191721782673 18.3653397843367
-4.924922731499378 5.1003532155835005 19.110747739441464
-4.845100508548229 4.433219977257002 19.87051581383263
-4.836677797233833 3.808187310198692 20.67874491729119
-4.89710434693112 3.2920661352787968 21.502465767732637
-5.041697761681898 2.9028136801385185 22.464814973942186
LINES 1 65
64 0 1 2 3 4 5 6 7 8 9 10 11 12 13 14 15 16 17 18 19 20 21 22 23 24 25 26 27 28 29 30 31 32 33 34 35 36 37 38 39 40 41 42 43 44 45 46 47 48 49 50 51 52 53 54 55 56 57 58 59 60 61 62 63
POINT_DATA 64
SCALARS NodeIdx int
LOOKUP_TABLE default
0
1
2
3
4
5
6
7
8
9
10
11
12
13
14
15
16
17
18
19
20
21
22
23
24
25
26
27
28
29
30
31
32
33
34
35
36
37
38
39
40
41
42
43
44
45
46
47
48
49
50
51
52
53
54
55
56
57
58
59
60
61
62
63
