# vtk DataFile Version 2.0
Vessel Segment
ASCII
DATASET POLYDATA
POINTS 64 float
1.2991733240316472 13.48955778476547 -8.062294411230967
0.6014028425380666 12.740662384127974 -7.849358335556748
0.047706738295341986 11.936480711208597 -7.7517424554069425
-0.45713675572123524 11.055981512118624 -7.704184200008211
-0.8909904006379765 10.138392055971098 -7.690724199239069
-1.2447077825732429 9.187774288664917 -7.68134434281424
-1.4915842791898826 8.205426391495108 -7.6305201750905844
-1.5794898840911966 7.2084376862813535 -7.471669255546997
-1.4587879023007957 6.251794918441478 -7.16119053115515
-1.1479192379825462 5.3776365469755945 -6.752102588045407
-0.7077109533253099 4.559273324598363 -6.34545825687648
-0.17688480282134222 3.762481684142217 -6.010605171381712
0.43369704474740106 2.9868570863106187 -5.777787440793673
1.1343788951346638 2.264955795849278 -5.6506105770054065
1.9489799237004404 1.6627624413391067 -5.617059798535241
2.887410575308707 1.2833518971428028 -5.646286514531771
3.896540847266645 1.2062437090729992 -5.677191309249139
4.891705376377629 1.3946958083460055 -5.642764642550202
5.830975730883919 1.7472601764066562 -5.496406434235436
6.701431056993228 2.170949301053744 -5.195230520700105
7.471388510454585 2.5652885553067923 -4.670137356627422
7.944829662236798 2.7077366049615255 -3.7981467695137545
7.668751499874189 2.3398678619945046 -2.9128260459922792
6.957418096720243 1.8295688363872078 -2.4036508780031456
6.104647103737613 1.3679667654073784 -2.1079002250917513
5.182022795462186 0.9867470682040909 -1.9287902326121664
4.218724024610075 0.6907014072917891 -1.812834172672256
3.2324130502891775 0.4721707745147454 -1.7196721861871689
2.236961775557722 0.3133501045671301 -1.6053450086320835
1.2526523082495282 0.18838861093301454 -1.398490723679206
0.3649427186840177 0.07271782622225342 -0.9262726640055259
0.0 0.0 0.0
0.18975620842114477 0.012148953216298945 0.9963452297677368
0.5511443243682662 0.06357019677376174 1.9426103196743205
0.9605172803333415 0.12539294202712878 2.868817127803561
1.3681566422937776 0.17889264334080493 3.7964470351019104
1.744476547056913 0.21289091718293046 4.737962917319532
2.0717033754692604 0.23377150937519953 5.698062017060533
2.3443050612694125 0.27577074643562616 6.674397255765382
2.5639175065647573 0.3941974935490361 7.657442412816205
2.7302546664324083 0.6478074453523753 8.625068773224054
2.8355860812050513 1.0787769889493 9.53645334195257
2.8650081242999574 1.6888797852492508 10.345308244280146
2.7992929573618337 2.437555736189727 11.025586680016259
2.61810403307405 3.2681743376502057 11.578134570160572
2.3055694635644297 4.125914015054056 12.019493512691668
1.8611841999735197 4.964368608815317 12.377224689357032
1.3058364196097603 5.755391953040551 12.685202364518197
0.6756204026896163 6.494712082381761 12.977358931569807
0.012032453472275608 7.1997650186608375 13.280574468712219
-0.6456763443007105 7.897212400919795 13.612798605046452
-1.2644846191535297 8.60903241974187 13.986364530180701
-1.8190241595347953 9.343413027683216 14.413256524931848
-2.292429795485234 10.090257554021884 14.91018719876722
-2.676160150308969 10.816257274215765 15.505235091913494
-2.966797189081047 11.453005783130179 16.23826436237607
-3.165344554332441 11.883264750296942 17.13278424520026
-3.291300086100301 12.000534167513955 18.1303012738026
-3.387881452127558 11.836714544000635 19.12586268521928
-3.4932320836920967 11.502881334940753 20.07774014434351
-3.627755319435076 11.096879998129998 20.998187287903402
-3.798032262127123 10.712273591391035 21.922665645421638
-3.9940977441372856 10.476064255399569 22.859803316573007
-4.1969269520115935 10.658904615530995 23.863234427870093
LINES 1 65
64 0 1 2 3 4 5 6 7 8 9 10 11 12 13 14 15 16 17 18 19 20 21 22 23 24 25 26 27 28 29 30 31 32 33 34 35 36 37 38 39 40 41 42 43 44 45 46 47 48 49 50 51 52 53 54 55 56 57 58 59 60 61 62 63
POINT_DATA 64
SCALARS NodeIdx int
LOOKUP_TABLE default
0
1
2
3
4
5
6
7
8
9
10
11
12
13
14
15
16
17
18
19
20
21
22
23
24
25
26
27
28
29
30
31
32
33
34
35
36
37
38
39
40
41
42
43
44
45
46
47
48
49
50
51
52
53
54
55
56
57
58
59
60
61
62
63
