# vtk DataFile Version 2.0
Vessel Segment
ASCII
DATASET POLYDATA
POINTS 64 float
-3.6522773890725353 10.678236767895221 -7.898585329428944
-3.260846201877809 9.946561126307286 -8.533088620788853
-2.870622391554789 9.201226053205497 -9.024712427649735
-2.441322615548795 8.354747368724349 -9.415558743511298
-2.0094723786544963 7.461356790448382 -9.612572640736742
-1.5884797661839407 6.538856708724577 -9.59160133308643
-1.2005503456328317 5.630113082890086 -9.363130879013122
-0.8547429177281349 4.753448005401439 -8.987699245322482
-0.5453170950418676 3.8979358472986583 -8.538533682071241
-0.2546226054166623 3.042685412012775 -8.07658828063418
0.04761943803584133 2.1716522598214216 -7.653020712479104
0.4199171494490669 1.286980376296869 -7.324692035553422
1.0160742601124197 0.4819161873308757 -7.169966923244852
1.9661327145724237 0.20217286511260635 -7.230604137351329
2.90849847721494 0.5842382313781506 -7.308406829328702
3.6974565572932963 1.2194962892748928 -7.284803651572042
4.372622453007797 1.9662937375141942 -7.160889626964709
4.940357622192022 2.7748424898127824 -6.9313865684494385
5.390597281623236 3.614208200306636 -6.582305734329691
5.6917968406005395 4.443922661297801 -6.084852878114444
5.774506323348503 5.181675761940737 -5.396019049596042
5.4134195297499 5.4821953135643735 -4.509990944935944
4.703622223416477 4.99417588942015 -3.9772254761682744
4.015436065512878 4.272091665441608 -3.8127975813582244
3.3339059226990546 3.5209051252372836 -3.767727902066674
2.6362321669658746 2.7854112909208224 -3.7301737953160106
1.9153342290341282 2.0824997620150993 -3.6068312098620017
1.1984394911287564 1.431948724008721 -3.3051917629994625
0.5640375518546887 0.8673565603549711 -2.7524690784999946
0.11982671880885237 0.4290655993656744 -1.9544754776275775
-0.06830405612760636 0.13987648387820484 -1.0016378145742666
0.0 0.0 0.0
0.2856940964944187 -0.0011243993530755893 0.9728149292588977
0.7379923056134647 0.1169229711151085 1.8727887186795122
1.3074229924049112 0.32319673043550423 2.686447620524588
1.9528201768717517 0.5766301515251988 3.427141837280032
2.6421649926377078 0.8302771301332762 4.127076034360112
3.3449515748934022 1.0333922246344684 4.829919418624422
4.019645301622234 1.1390094939386461 5.579939641863819
4.6103285725646375 1.1274384514315008 6.404327181663265
5.066098544855439 1.029522588517609 7.305085438244746
5.356074525858179 0.9149782946949132 8.270118947538021
5.457836450159363 0.8673639499655689 9.277862176439937
5.346925890538759 0.966240897362656 10.280493073363312
5.015586758944265 1.2567768830921653 11.192918249634136
4.499977964816231 1.7150816001537463 11.935590158488713
3.8630345126928884 2.274042841964746 12.492683505281299
3.1554913725944678 2.8748276645958986 12.901955711538298
2.4046015983954114 3.4809288991535445 13.215170583167238
1.6210497826953623 4.068385112211724 13.480258217762085
0.8056219830273762 4.613870956307194 13.738839114920909
-0.04513558643356078 5.085185233061141 14.027416505400753
-0.9311354023653202 5.437220385548558 14.373518169394048
-1.8388851332427834 5.6319700349941035 14.78184715604421
-2.746171769305485 5.6857923470279115 15.232435239230243
-3.6411390224307802 5.674442854566064 15.710409700759726
-4.516126889204301 5.690342862474921 16.223582163655394
-5.348126353164816 5.794694633973921 16.79438816480161
-6.1006234744578265 5.988572153139568 17.44631079422241
-6.741210840101442 6.2175315085558545 18.19885785486231
-7.238921785174912 6.394014192410081 19.062926335467687
-7.547786138311759 6.397723561952584 20.038032065610203
-7.649369103974948 6.1876313303380535 20.985671487646822
-7.556247226636411 5.7210056856487 21.91474728145297
LINES 1 65
64 0 1 2 3 4 5 6 7 8 9 10 11 12 13 14 15 16 17 18 19 20 21 22 23 24 25 26 27 28 29 30 31 32 33 34 35 36 37 38 39 40 41 42 43 44 45 46 47 48 49 50 51 52 53 54 55 56 57 58 59 60 61 62 63
POINT_DATA 64
SCALARS NodeIdx int
LOOKUP_TABLE default
0
1
2
3
4
5
6
7
8
9
10
11
12
13
14
15
16
17
18
19
20
21
22
23
24
25
26
27
28
29
30
31
32
33
34
35
36
37
38
39
40
41
42
43
44
45
46
47
48
49
50
51
52
53
54
55
56
57
58
59
60
61
62
63
