# vtk DataFile Version 2.0
Vessel Segment
ASCII
DATASET POLYDATA
POINTS 64 float
2.1987200291521525 13.161878303272989 -8.304562588473878
1.5554188321925468 12.364568440892269 -8.193342191540216
1.2439288669680877 11.464267460399533 -8.474530806986696
1.181539380489874 10.580813757490416 -8.965314555129487
1.2172036094386183 9.714397121058306 -9.491886118286493
1.1763792530967958 8.781885879250906 -9.881947190107146
0.8273577611158933 7.841488213843364 -9.834583893334763
0.2852849254435694 7.063637298844913 -9.473943962379389
-0.2779987629862503 6.325295202956933 -9.06527660880281
-0.7627401424487198 5.507822847095478 -8.713054713969063
-0.9701044805235047 4.546142890153777 -8.49117043192199
-0.5901693532365644 3.6238003456860692 -8.400714907516598
0.2619438859461545 3.096989486547467 -8.293453613527014
1.250591453887487 2.9568648493491785 -8.127651015003929
2.2429916785319035 3.050712049429551 -7.9421629630163135
3.217032255772067 3.259976736998707 -7.750606461961694
4.175089694186056 3.4913919715586386 -7.518979729353302
5.061539160563261 3.583074528650037 -7.060481077428882
4.979344724753527 3.14046503797165 -6.230034315776033
4.258614115834212 2.6226147670998503 -5.744183900482866
3.3694240445634334 2.1762225341774553 -5.555143563240134
2.40020284460883 1.8949565175719953 -5.633123288077596
1.4081673415053626 1.8272208021677436 -5.829997024270241
0.4026520930933139 1.9172325601094506 -5.9126549124226075
-0.5626042283488754 2.0354621457600515 -5.64366119486774
-1.2960532682283978 2.0141757283006636 -4.952716830971947
-1.7036138178597033 1.8088623845546812 -4.0500985297315975
-1.839718588900062 1.4728902693709887 -3.1043535711320063
-1.7303022603869465 1.058526730025964 -2.1865776942836206
-1.362078394668155 0.6255040327997509 -1.3486319202798218
-0.753283100675067 0.2532840266910796 -0.6296473634909777
0.0 0.0 0.0
0.7833122061453472 -0.12333062603379971 0.6321215636880582
1.4729076200257891 -0.1223669074740869 1.3739263314713477
1.881624931666963 -0.003970768611319108 2.2896739790671514
1.8903615741197288 0.2208759706467514 3.2752381178298697
1.6310774048059467 0.5707811325195242 4.18994448744305
1.292328134355103 1.099332167421653 4.9851439205826145
1.0038621170985131 1.8177946365076652 5.638687238617892
0.810609928544538 2.662633283174342 6.164937262900567
0.6832260507173519 3.5642834655749085 6.612113599058387
0.5616185600233458 4.48343123807133 7.024150487293743
0.389814498194714 5.399159341025277 7.425539146824307
0.15118217962819455 6.298016750525575 7.830878656654221
-0.13240553405951577 7.1721981286898515 8.260571927596626
-0.43283033561470496 8.009326290846902 8.74844073552177
-0.7344892541374908 8.773980786218285 9.341950574198538
-1.0373511275639864 9.383222102307185 10.092048745025053
-1.3358407546923672 9.729723683463984 10.99475251937054
-1.603293415468587 9.775343562093889 11.97017940538557
-1.8085824060371951 9.558093763406154 12.938089109393275
-1.9297967674631267 9.127924224126941 13.847528155718447
-1.969586181739981 8.53852508128303 14.671503709305359
-1.9627948849426116 7.850309627044913 15.416777790734082
-1.9541449185763347 7.116257359791789 16.117046338434175
-1.9593686542418047 6.370399504878956 16.804882014593815
-1.9540081589284166 5.628732530024138 17.49714274019221
-1.882337012947388 4.893179959421244 18.191937308721872
-1.675908791228826 4.158791014847599 18.859683025195576
-1.2955389022393287 3.4255107714210844 19.447063900940137
-0.7689708795612213 2.694083795929136 19.91165646208481
-0.16440291872480262 1.9529751540626024 20.243683738045586
0.440683396048138 1.1917658912901223 20.44761192897764
1.009279621642249 0.3284964147408475 20.524633976697906
LINES 1 65
64 0 1 2 3 4 5 6 7 8 9 10 11 12 13 14 15 16 17 18 19 20 21 22 23 24 25 26 27 28 29 30 31 32 33 34 35 36 37 38 39 40 41 42 43 44 45 46 47 48 49 50 51 52 53 54 55 56 57 58 59 60 61 62 63
POINT_DATA 64
SCALARS NodeIdx int
LOOKUP_TABLE default
0
1
2
3
4
5
6
7
8
9
10
11
12
13
14
15
16
17
18
19
20
21
22
23
24
25
26
27
28
29
30
31
32
33
34
35
36
37
38
39
40
41
42
43
44
45
46
47
48
49
50
51
52
53
54
55
56
57
58
59
60
61
62
63
