# vtk DataFile Version 2.0
Vessel Segment
ASCII
DATASET POLYDATA
POINTS 64 float
0.29404301251202103 15.277998750636497 -10.703383895201743
-0.028241108876022013 14.669354054157447 -11.49060980183936
-0.21395909922160652 13.910130672471885 -12.081024795339886
-0.3169877051512894 13.012066547164922 -12.545629785254366
-0.34866779896876676 12.049709025238469 -12.86548340170384
-0.3309057370980381 11.056210332582102 -13.069004459700613
-0.2689683989020552 10.050508064509266 -13.186799302873883
-0.1160428236304497 9.05039881045934 -13.255080104413409
0.3028149854697813 8.132715842009542 -13.314478559646476
1.0905681162271719 7.499929744243075 -13.352041419424445
2.028168754825937 7.114736600539036 -13.31883819815932
2.9940374552133693 6.826608856411714 -13.204298659186714
3.9527311512633103 6.562360912296479 -13.003804756579747
4.8804031301746145 6.278731305127644 -12.707244374438947
5.734503324608948 5.92820841177836 -12.290265706358054
6.370064414153765 5.417540496524927 -11.69292113106875
6.311884554849376 4.722550795378997 -10.982556854227504
5.643644697605772 4.156096075661009 -10.470937698801823
4.801122812684938 3.739987722672532 -10.090278702596187
3.9019172075080153 3.425403650529313 -9.741800963891402
2.991607204269461 3.1929551152163094 -9.359255701574238
2.1132252160513643 3.036120913198755 -8.877296379159636
1.3381126140451651 2.9465143780233802 -8.230726970392842
0.7570855556585597 2.8879871414575797 -7.402986338083301
0.39393075495421126 2.7883774775222245 -6.4619208929105625
0.19588203458397763 2.5866702444578173 -5.488141702039218
0.09767742993066102 2.263900573563448 -4.531673796084179
0.05054624285649688 1.8413506942409918 -3.6106702797222274
0.025973387685218553 1.3585134630911906 -2.718670109835187
0.010821141406136943 0.8588808175267993 -1.8357691139223913
0.0017647921671663368 0.38827558524581895 -0.9370152848432703
0.0 0.0 0.0
0.0069805117678235044 -0.2469021484239531 0.9834821427308511
0.021498621695136194 -0.307520483640989 1.9953639926189846
0.04006262090572608 -0.1763131023553281 3.0005908664570384
0.05934701307923627 0.12010376470036072 3.970243212720152
0.07699042174703076 0.5482333130624872 4.889572630326318
0.08922351891186381 1.0824242406228086 5.751767169234894
0.08822156669542268 1.7054386528583099 6.55228451937733
0.0593605871046103 2.4039384680973415 7.287303005742494
-0.019652886553749704 3.161457606590913 7.957330191033175
-0.17342977920898728 3.952769720615333 8.573134265151005
-0.4182489987093754 4.74361231813087 9.159411740168943
-0.7546355141292476 5.4959745505977065 9.750739222240036
-1.165627039846835 6.174928611564925 10.38235710020754
-1.6168713358006976 6.752937021064808 11.083055076561967
-2.062923976754775 7.208413318855869 11.871630637884659
-2.453862681845298 7.515672973786081 12.755160736226955
-2.7446832051240824 7.641497524749813 13.717750444504494
-2.91651432361968 7.558934445698942 14.713049660800351
-2.9881085539717933 7.270840883147226 15.682324895487
-2.9960633121982543 6.813100146216522 16.587086693504336
-2.965087487488347 6.233523867945552 17.418909788262372
-2.9009731628898052 5.574294201140909 18.18722747570361
-2.792576435420558 4.869123464134235 18.908561230389726
-2.613946909099814 4.148424142524813 19.599693758258756
-2.3259502699072394 3.4463342565064785 20.272682714075746
-1.8843911928060324 2.808080760014806 20.925040295141123
-1.2653354678276887 2.2816745810268038 21.53070241944167
-0.4955937253876577 1.8787724453331862 22.053111357466182
0.3646368227141756 1.5490795588912125 22.478902525973602
1.2633451321665747 1.214948581340738 22.819133694489597
2.1223366453140318 0.8267398299551608 23.082953984764956
2.970449407233643 0.25475116747838367 23.305049529802016
LINES 1 65
64 0 1 2 3 4 5 6 7 8 9 10 11 12 13 14 15 16 17 18 19 20 21 22 23 24 25 26 27 28 29 30 31 32 33 34 35 36 37 38 39 40 41 42 43 44 45 46 47 48 49 50 51 52 53 54 55 56 57 58 59 60 61 62 63
POINT_DATA 64
SCALARS NodeIdx int
LOOKUP_TABLE default
0
1
2
3
4
5
6
7
8
9
10
11
12
13
14
15
16
17
18
19
20
21
22
23
24
25
26
27
28
29
30
31
32
33
34
35
36
37
38
39
40
41
42
43
44
45
46
47
48
49
50
51
52
53
54
55
56
57
58
59
60
61
62
63
