# vtk DataFile Version 2.0
Vessel Segment
ASCII
DATASET POLYDATA
POINTS 64 float
2.9979775613496904 13.614870359080474 -10.475814501291898
2.474725418951952 12.738221798019966 -10.64252919997331
2.044184435872606 11.895566248088308 -10.951380556576032
1.6163570340847415 11.036621543466666 -11.275140884094315
1.1741977709625069 10.161363454589685 -11.535041142644022
0.7288107947330587 9.257986085155341 -11.649133449309092
0.3425830458293443 8.331944690267326 -11.516188597561387
0.10438282435667183 7.443883693848292 -11.093721788218199
0.02022459162264998 6.640734182364984 -10.48094384042564
0.0318279580210643 5.888672520897242 -9.80019431684699
0.11214150492757537 5.123779948281589 -9.13888286088654
0.3367132425796286 4.2980999717474 -8.597786223150065
0.9209960723164184 3.5417036627525773 -8.283104818485175
1.8247451558330723 3.14099485385931 -8.075098290590763
2.800428296638613 3.072544974059185 -7.812886083615262
3.7519245636601615 3.2271508314451753 -7.499225312294829
4.657736243229639 3.5389936621354643 -7.16708026158052
5.506574953399565 3.9743454128149103 -6.833037532650217
5.8104987982308725 4.389680082460256 -6.123593006155881
4.914513330798159 3.9987979045128443 -5.712598962643754
4.034280190376839 3.584941659926956 -5.43272201472418
3.1244898045875416 3.1775240406103507 -5.250748353170084
2.1757395338557046 2.828103452195476 -5.172918669806803
1.1838251877491237 2.6197893912807717 -5.154692943950555
0.18855228200068597 2.63363128070293 -4.980995185616633
-0.6284362611742811 2.724582327188131 -4.396951906863614
-1.1790621890865425 2.63250503442151 -3.5538022200022756
-1.4943085315215388 2.291488691896554 -2.6550035068667666
-1.5532159614087047 1.7348946797212597 -1.8124453635049165
-1.3017230347589255 1.0659583615088968 -1.0969872951293953
-0.7456518437285002 0.44781706117388953 -0.5200137714335392
0.0 0.0 0.0
0.7776457226446564 -0.2541499679402462 0.597641782037835
1.4227728421996795 -0.3363002104865484 1.3728009713946214
1.8293182581262004 -0.28584402883469967 2.298839264597261
2.0305164282672945 -0.13221641762773576 3.2803059903559193
2.0878165020968917 0.13152748469134024 4.257586279370615
2.0169459871640494 0.5325940896620591 5.185566547498522
1.804864966464037 1.078560472189777 6.012296136138337
1.4599927349858401 1.7298050348090466 6.70839861475417
1.0265039837767291 2.436819683450234 7.292239475322125
0.5540796700367292 3.1762843054240966 7.801433723184117
0.0769650432576956 3.943856844451433 8.262333301015172
-0.39645326370973394 4.733847673477836 8.687996328237682
-0.8821879136563581 5.527496970390514 9.092476146631633
-1.3912036334430358 6.301350927463117 9.506415086939464
-1.9086137091410318 7.038359483016688 9.97350918528018
-2.3991147120096907 7.720346041298286 10.541429111167101
-2.8143492596621256 8.303505441536762 11.258331148406766
-3.0968428702351765 8.697579834908021 12.146313453944131
-3.2199776860850853 8.817519525967583 13.143479697307367
-3.2258144151073718 8.670865672852965 14.145711349321308
-3.1738985555247723 8.311007418989616 15.09176161647373
-3.0977591885323212 7.776378186903565 15.949593820235087
-2.995190844596955 7.0906067856238595 16.689007014085714
-2.827212376925318 6.278682729034542 17.271512764932275
-2.537037170030835 5.391238038869846 17.6645146858705
-2.09981131549056 4.504993747634305 17.88998592703498
-1.542606100069115 3.67006368944325 18.03533410532943
-0.9070731758248709 2.894912567746214 18.191123227655435
-0.22746627722534316 2.174459064535659 18.411026200956254
0.47008559079584483 1.5044881518055386 18.71045087765395
1.1598315806092068 0.8882896985119696 19.075691180395047
1.8743132450882238 0.2840162380078045 19.521281301196392
LINES 1 65
64 0 1 2 3 4 5 6 7 8 9 10 11 12 13 14 15 16 17 18 19 20 21 22 23 24 25 26 27 28 29 30 31 32 33 34 35 36 37 38 39 40 41 42 43 44 45 46 47 48 49 50 51 52 53 54 55 56 57 58 59 60 61 62 63
POINT_DATA 64
SCALARS NodeIdx int
LOOKUP_TABLE default
0
1
2
3
4
5
6
7
8
9
10
11
12
13
14
15
16
17
18
19
20
21
22
23
24
25
26
27
28
29
30
31
32
33
34
35
36
37
38
39
40
41
42
43
44
45
46
47
48
49
50
51
52
53
54
55
56
57
58
59
60
61
62
63
