# vtk DataFile Version 2.0
Vessel Segment
ASCII
DATASET POLYDATA
POINTS 64 float
0.23418364636012115 12.172906014627218 -12.054143321994925
-0.2021190033285729 11.84042650344818 -12.943804904902446
-0.6502240795641665 11.17707804163786 -13.506534216102304
-1.013165414751918 10.253499078437436 -13.706802982593734
-1.2003500558503266 9.260277145858735 -13.633489241492326
-1.2011947216121976 8.265355874251087 -13.438805546688974
-0.9893751765571612 7.300803619829876 -13.210861479078266
-0.5244991323072753 6.425612164219158 -13.001968344566794
0.19476560187338274 5.732225645637257 -12.838093285295846
1.0904842461184545 5.275480047486508 -12.713366622345884
2.064169036353104 5.016743973800274 -12.597251845908739
3.0581509998365832 4.8720585784489625 -12.455067061281591
4.047260316238623 4.766581995058864 -12.255699411035385
5.010182335651235 4.635200922559121 -11.965318304668747
5.897706114088928 4.405686623616417 -11.533864813094803
6.552787085683378 3.9860342790358314 -10.890469750749414
6.573625410640751 3.3821667258334243 -10.096802594437698
5.911843945130601 2.891923137416695 -9.512965118176247
4.996050610477082 2.608449173264644 -9.185179848630863
4.009468826927355 2.470416734483814 -8.995240881146207
3.005373746988937 2.4372860906773726 -8.854555007011465
2.0087443867569954 2.483843051346329 -8.67194517297879
1.0722225693239351 2.5756941146852954 -8.296512445453724
0.3858339112454744 2.6143391263423235 -7.559184554404719
0.057370433069974046 2.5125752085378608 -6.606440139167066
-0.07751700980634779 2.297714046545276 -5.624549029157822
-0.1296426540883788 2.002533018864098 -4.655394115425455
-0.14164524805606096 1.6461868383442666 -3.705606075911624
-0.12916389379092072 1.2445582750790336 -2.7739842955710134
-0.098195582790726 0.8173974950375748 -1.8542381904035279
-0.052828046021211814 0.39102550929514135 -0.9346524977955004
0.0 0.0 0.0
0.04868967296326377 -0.31587014284026915 0.9626887346975553
0.07944786971183845 -0.5179657175892027 1.9560959636173285
0.0825858534800588 -0.5790843634667794 2.9684388896378007
0.057029610959923566 -0.48908064633430354 3.9782511565235463
0.009059602036192972 -0.2530524776096432 4.96339457744388
-0.052447385092753 0.1166643736591232 5.905825425663707
-0.12081321025536104 0.6076397286842377 6.790687273005923
-0.1958013960683187 1.2083034952627323 7.604522340060562
-0.2854193272146402 1.9036919380707364 8.337493087645912
-0.40304452691042875 2.6692043042908025 8.992629023953178
-0.5611320976198111 3.470140859764865 9.594943877567792
-0.7649460449551333 4.2675566047683935 10.188166626161976
-1.0101220910266198 5.02445119172396 10.817549334776135
-1.2857029289362956 5.706019628336275 11.516307809712272
-1.577266144765882 6.274877283567031 12.303546022607476
-1.8674815661689197 6.6887119118162905 13.18237682086583
-2.1365140324712337 6.901112123884655 14.136187955833162
-2.364530718045212 6.873024595567733 15.123114497382762
-2.539725658555763 6.599496640571198 16.082982897357994
-2.6657684681926166 6.124858297012516 16.969974861116278
-2.751993818773646 5.51355384424378 17.774662587138106
-2.801613017511027 4.818901109653136 18.512357516389784
-2.8065893093148455 4.076691004571191 19.20390631485547
-2.748707147172304 3.308252448112354 19.86372278585464
-2.603827797578226 2.5261145938622476 20.493112051489632
-2.3527404100130824 1.7374985544720973 21.079480677323257
-1.9928492882484372 0.9466901969690699 21.602899749794016
-1.5392881471466289 0.1558078198840929 22.04705987273635
-1.0147539221606963 -0.6355401456424228 22.406120483050366
-0.43979931185274135 -1.4285626897700874 22.681777049500766
0.1422243283605614 -2.1903444822929625 22.875011703506097
0.7860450220034906 -3.007383004369922 22.999010598817055
LINES 1 65
64 0 1 2 3 4 5 6 7 8 9 10 11 12 13 14 15 16 17 18 19 20 21 22 23 24 25 26 27 28 29 30 31 32 33 34 35 36 37 38 39 40 41 42 43 44 45 46 47 48 49 50 51 52 53 54 55 56 57 58 59 60 61 62 63
POINT_DATA 64
SCALARS NodeIdx int
LOOKUP_TABLE default
0
1
2
3
4
5
6
7
8
9
10
11
12
13
14
15
16
17
18
19
20
21
22
23
24
25
26
27
28
29
30
31
32
33
34
35
36
37
38
39
40
41
42
43
44
45
46
47
48
49
50
51
52
53
54
55
56
57
58
59
60
61
62
63
