# vtk DataFile Version 2.0
Vessel Segment
ASCII
DATASET POLYDATA
POINTS 64 float
0.35779316513393405 9.247576994698658 -6.060858862799914
-0.10020173340769456 8.544868270784713 -6.685690439021252
-0.5183178975722179 7.774991063400919 -7.126312027651455
-0.9219831526437707 6.891522633821727 -7.422034538869355
-1.2686831818685582 5.943415211928336 -7.517686505044347
-1.52628728037643 4.971589181982176 -7.39175773305938
-1.6685719898784 4.027772972252979 -7.051325497591534
-1.690232047504713 3.1509408746188674 -6.5428133199840826
-1.60301420694648 2.344287072814554 -5.934264788623289
-1.4150186968296885 1.585289804747334 -5.288110255585678
-1.1154295215826442 0.8465753855207285 -4.6609902807741275
-0.6666965718218553 0.11961860272598332 -4.115388800748391
-0.008839819453526868 -0.5393341044498753 -3.717924902227015
0.8779597083828716 -0.968956906954928 -3.492142037605754
1.880643635935818 -1.0224750169479364 -3.3723490903178153
2.8484738630858644 -0.7422818337156797 -3.2675728326331335
3.7314730534057623 -0.26187753983296336 -3.134367995856958
4.537847074493663 0.32765374794305735 -2.958046471216423
5.283038628594106 0.976351655919426 -2.7278963662387468
5.972818003968432 1.6553350515716811 -2.4242974486422955
6.589676381554999 2.3394138265157753 -2.0013470453145463
7.040799204150887 2.9644917899346797 -1.347383647428851
7.008854217021021 3.2438765028033236 -0.39306283161074407
6.4876909726613 3.0196838706051157 0.44441585831691294
5.800172541978854 2.5515778792192996 1.0221578834976608
5.04774009544859 1.965325529152161 1.3638675812858903
4.263499469831092 1.330134809881964 1.452493685657555
3.470553027745029 0.7270927093644323 1.2691211174545167
2.6825422582095255 0.24578739793914817 0.8517022283199798
1.8757963227343366 -0.05986787883799863 0.31961577548970377
0.9720007688324531 -0.15873955208206 -0.12508559960662655
0.0 0.0 0.0
-0.5646078826541608 0.24415392480157141 0.80164908254562
-0.7549665609153671 0.42464231736885244 1.7799671087427082
-0.713310337052461 0.549050896249777 2.785137515319047
-0.4813424508681101 0.6316083938195416 3.768653055813635
-0.07838423556314984 0.6867151268206557 4.6974875980440585
0.4618295947123498 0.7315556788264316 5.554757507954705
1.07748352323658 0.782781908979929 6.359507379436273
1.6851863064843446 0.8530708845548433 7.168871076362884
2.189206829306815 0.951604104181173 8.043116054233124
2.5074240071366902 1.0911800923924628 8.995173611541853
2.613386591268296 1.2933667246786706 9.982764429619774
2.533815432697537 1.585763993700104 10.950174985717895
2.3134909033063997 1.9988029201850375 11.849359464753539
1.9923540513803466 2.556147665687529 12.63264859291063
1.6044339947506383 3.2584648994174503 13.25181788580726
1.1734082278039681 4.06578301914384 13.688010292094635
0.7077917603439917 4.921368062389023 13.970562708476598
0.20730015120741185 5.784085876231284 14.156117161320063
-0.326133294597718 6.634648857184326 14.302342122535688
-0.8816637568410005 7.469746297190399 14.455133427441103
-1.4419131275335813 8.293713369991712 14.64631424071046
-1.9897560354250077 9.109789005674317 14.897405995541076
-2.515759395770063 9.91283965070279 15.225296194667385
-3.020280701860774 10.685012205371963 15.647335751924771
-3.5115150952133334 11.39158217044174 16.183884377590818
-3.996922229982829 11.971847117563371 16.858506125250507
-4.466904212681152 12.325658452117606 17.682397925059675
-4.874004549780112 12.341364463011645 18.60794034154963
-5.156549902089193 12.006536551940846 19.5208199740542
-5.295172390545894 11.420054313101545 20.337344292000342
-5.309519971107048 10.714427026901497 21.017932828482884
-5.201931622174704 9.866831568509582 21.621352740870286
LINES 1 65
64 0 1 2 3 4 5 6 7 8 9 10 11 12 13 14 15 16 17 18 19 20 21 22 23 24 25 26 27 28 29 30 31 32 33 34 35 36 37 38 39 40 41 42 43 44 45 46 47 48 49 50 51 52 53 54 55 56 57 58 59 60 61 62 63
POINT_DATA 64
SCALARS NodeIdx int
LOOKUP_TABLE default
0
1
2
3
4
5
6
7
8
9
10
11
12
13
14
15
16
17
18
19
20
21
22
23
24
25
26
27
28
29
30
31
32
33
34
35
36
37
38
39
40
41
42
43
44
45
46
47
48
49
50
51
52
53
54
55
56
57
58
59
60
61
62
63
