# vtk DataFile Version 2.0
Vessel Segment
ASCII
DATASET POLYDATA
POINTS 64 float
0.9411633252668314 9.363667909370344 -8.538324286263839
0.9176183605051516 8.535158290521556 -9.175901691591426
0.8803638852632466 7.667523164658085 -9.632492223782524
0.8045246503975806 6.676338166511789 -9.822817388536752
0.6566751240576485 5.7290710478565385 -9.514721270538182
0.4439597036654827 5.0130558885425724 -8.83075395278405
0.18790322462642567 4.453867605733087 -8.024147155632566
-0.0963630262717671 3.935951778928858 -7.1992877306327605
-0.37557078241043435 3.367181689085214 -6.407172915370542
-0.5579428061650108 2.6534640075075484 -5.712184134753122
-0.4567334932651879 1.7868602942681988 -5.203239208753398
-0.013360983467460145 0.9449298149162604 -4.856297276458341
0.6247910865988211 0.23053607583449445 -4.524089828834036
1.3446717022552428 -0.35692829045880864 -4.117923423846401
2.092421436286871 -0.8252831124455005 -3.6179350899245035
2.8470439223216166 -1.1779038310851486 -3.0392549441961645
3.6101047370456785 -1.4152176517025918 -2.4145869018267714
4.398550284121 -1.532019151120244 -1.7877239489392804
5.242851640539866 -1.508620615116117 -1.2267498335590474
6.179806402743636 -1.2938162143944711 -0.8873912630319762
6.878515763622641 -0.8394943205469974 -1.3595807480357456
6.515782281479336 -0.63743483998103 -2.2715467004874017
5.780097045509424 -0.6236318553326656 -2.962222027753878
4.911268445274714 -0.6649077288015071 -3.483705022124959
3.969645111698132 -0.7114607124274352 -3.857323719881513
2.9778232059655334 -0.7296037341158687 -4.066489905565366
1.966280425218162 -0.6816018358467507 -4.046873399216373
1.0373700874757412 -0.5216465215527651 -3.6840646092795204
0.3919809753641625 -0.2650178589214761 -2.951218240648306
0.07756671278999663 -0.03705687444174443 -2.01596291545969
-0.018943515278364645 0.06179683667207942 -1.0119559065104913
0.0 0.0 0.0
0.06727162604536772 -0.19840448567529154 0.9924077255328349
0.1474432898007521 -0.48305435584394696 1.9628469424038402
0.22820669282558662 -0.7957918333053198 2.9247419184405694
0.3117790685095157 -1.0799320957284233 3.8950420606311873
0.40430704197423173 -1.2883657001966446 4.883443409850612
0.5064868089812242 -1.3856333615603613 5.887844381463902
0.6095720426350872 -1.3434793105203011 6.895864513087315
0.6924201738189614 -1.1393214896702173 7.8855681101877435
0.7245496525755594 -0.7602479704336268 8.825206008054735
0.6797688673957052 -0.2112975072065842 9.676174526448184
0.5526135617722291 0.4784956594072676 10.408189055795914
0.36110292153122814 1.266196769434812 11.01757618358233
0.13235912980837755 2.112980337117024 11.527114826822409
-0.10957307685103346 2.9923487786613086 11.971527640125244
-0.34868014585655777 3.8868970835945733 12.386308000170542
-0.5783188785987321 4.78455722655031 12.799694688790336
-0.8012866472903236 5.675965744737623 13.229903402834381
-1.0264077128963505 6.554377108973734 13.684974052511839
-1.2614271225641658 7.414148295329201 14.16969019881077
-1.5055148170009742 8.247102673030422 14.694931147481158
-1.7462658027849245 9.03537983666399 15.286164714482643
-1.9610877522005736 9.739329601681131 15.98363503730019
-2.1224087302830004 10.281184443693572 16.82419932673829
-2.2209677765645726 10.576540035655077 17.787968984422086
-2.2857683550490164 10.62611027675123 18.79832993446861
-2.354279538542366 10.496622016467347 19.801913481659376
-2.448158890806396 10.243829348553598 20.77965369606253
-2.57600571192567 9.894904309681447 21.723442423261275
-2.737525703805515 9.45565878974439 22.624106842113804
-2.9246635624867334 8.920752871484666 23.466678561063315
-3.118044259798776 8.309504424522082 24.21025483035908
-3.3188944496394805 7.538613646526691 24.887312318113995
LINES 1 65
64 0 1 2 3 4 5 6 7 8 9 10 11 12 13 14 15 16 17 18 19 20 21 22 23 24 25 26 27 28 29 30 31 32 33 34 35 36 37 38 39 40 41 42 43 44 45 46 47 48 49 50 51 52 53 54 55 56 57 58 59 60 61 62 63
POINT_DATA 64
SCALARS NodeIdx int
LOOKUP_TABLE default
0
1
2
3
4
5
6
7
8
9
10
11
12
13
14
15
16
17
18
19
20
21
22
23
24
25
26
27
28
29
30
31
32
33
34
35
36
37
38
39
40
41
42
43
44
45
46
47
48
49
50
51
52
53
54
55
56
57
58
59
60
61
62
63
