# vtk DataFile Version 2.0
Vessel Segment
ASCII
DATASET POLYDATA
POINTS 64 float
-0.18206225124996978 14.676668393435566 -7.135259671516684
-0.5795416945378107 13.948172992591966 -7.774065645390919
-0.9188790302806205 13.191932553593384 -8.28274823885481
-1.2106427532662725 12.309686630668114 -8.714686962111992
-1.3667227733385066 11.348668932526476 -8.991999950637023
-1.33684081968894 10.34184872264445 -9.105490703218893
-1.1375743968736087 9.347505823720228 -9.08768244281088
-0.8500195613605451 8.377916998698284 -9.006553296534815
-0.5431379635394973 7.414450348629221 -8.922980539651222
-0.2395394123516205 6.4473534455094965 -8.879491085226764
0.08413134106433791 5.486179510844811 -8.90414786292729
0.48771885265769116 4.562627746186174 -9.01747029714158
1.0619816904114334 3.75297169629371 -9.222002179563448
1.8721694754712823 3.197610378497716 -9.465964892339178
2.8459036970258103 2.9836466955001204 -9.644551217522311
3.8573894888020566 3.0336595409872484 -9.691439298012503
4.846624907868357 3.2318386195399125 -9.588790893581661
5.788051012488706 3.4948249650838967 -9.318774376399615
6.642702003003436 3.7528718948286093 -8.838256503709914
7.240001351659426 3.897065395351106 -8.030283220476315
7.086269852054551 3.753642908789218 -7.067774990031259
6.384387582023477 3.450459800592852 -6.398739421902718
5.5492762963524305 3.1256345491390545 -5.923064010612922
4.679471827405421 2.7934376975605812 -5.520175676422724
3.813572850027541 2.449283990570345 -5.118670949432504
2.9816570666873323 2.087197740644177 -4.664821155899534
2.216000121505952 1.7080439787434423 -4.118125700829214
1.5464877740336163 1.324140816112357 -3.4600158240114287
0.9898397374593741 0.9529205355071925 -2.697738584293216
0.5485997540428897 0.6060692066392692 -1.8527703458432323
0.21953055480729103 0.28772301602587436 -0.9476560859251367
0.0 0.0 0.0
-0.11240763162063983 -0.25258894411237476 0.9760086432290833
-0.12314820710387077 -0.4601116482773308 1.9689778472073
-0.04301860729998918 -0.6056643960757321 2.969695955585885
0.11028994176736615 -0.6658789644738112 3.9706169358945123
0.3121958412296757 -0.613422407902337 4.963349488366309
0.5325468009086021 -0.42444187168050324 5.935172457626182
0.7403600496640633 -0.08877451546566562 6.869444206866651
0.9115766796618957 0.3852895777662897 7.749635718816246
1.034513152770946 0.975184873870495 8.565609883064983
1.1085168936403444 1.6536104466248942 9.316168173315827
1.137223428984826 2.396813336957891 10.00611637541605
1.121586916541283 3.187532548718671 10.641537868172124
1.0560268375026756 4.01357326529601 11.226865369092367
0.9288151342267008 4.8638811330379115 11.76537773618981
0.7264157987704553 5.724778658534887 12.262474580777655
0.44288098917073904 6.578391117256402 12.731706366974684
0.08526420408277662 7.405503942927032 13.197765214487978
-0.32703033657605984 8.188589018289766 13.693836696315167
-0.7651051287439048 8.909472059881208 14.257241100057762
-1.1936222177636058 9.542904345892703 14.923476901705202
-1.5695945697391422 10.04541403814052 15.719813099069345
-1.845140689700258 10.34653228340687 16.647330747772433
-1.9897167296025677 10.366499843501556 17.649610737122437
-2.015879649200511 10.082593347597353 18.62187761877336
-1.971607314906457 9.567580935426184 19.494112074140034
-1.903974926256879 8.932622288883783 20.282478678130925
-1.8431532535666106 8.269455991052135 21.048019292413116
-1.8119780316412641 7.656288895129067 21.855481310853754
-1.8375917700390911 7.187939065826867 22.75336501328289
-1.953380388738268 6.983859846033607 23.747584668084862
-2.1443568991174997 7.060878115897365 24.699136882287128
-2.4204590856438393 7.406634189068999 25.647765135450694
LINES 1 65
64 0 1 2 3 4 5 6 7 8 9 10 11 12 13 14 15 16 17 18 19 20 21 22 23 24 25 26 27 28 29 30 31 32 33 34 35 36 37 38 39 40 41 42 43 44 45 46 47 48 49 50 51 52 53 54 55 56 57 58 59 60 61 62 63
POINT_DATA 64
SCALARS NodeIdx int
LOOKUP_TABLE default
0
1
2
3
4
5
6
7
8
9
10
11
12
13
14
15
16
17
18
19
20
21
22
23
24
25
26
27
28
29
30
31
32
33
34
35
36
37
38
39
40
41
42
43
44
45
46
47
48
49
50
51
52
53
54
55
56
57
58
59
60
61
62
63
