# vtk DataFile Version 2.0
Vessel Segment
ASCII
DATASET POLYDATA
POINTS 64 float
0.6655068288353353 11.884687230539535 -8.206943335894445
0.7163989937297267 11.362897663536451 -9.113247331700466
0.7592228851957531 10.66335130467945 -9.794800721944643
0.7887967019768762 9.7592640327849 -10.255930731258886
0.7912944660448056 8.75796962047149 -10.410298264846483
0.7576541136885301 7.750601172602283 -10.303295477694906
0.6792311026722201 6.781692599005868 -10.01433925828461
0.5477234070874254 5.859031437815354 -9.613887660446107
0.3592323193762083 4.9740126348156295 -9.155166039366716
0.11759233540237465 4.112831792120657 -8.675827049602104
-0.1649361288003246 3.2619338885762996 -8.20324543825839
-0.46445277073357627 2.404236789393226 -7.759996791212735
-0.7143072651663969 1.4507441337800313 -7.349276560998916
0.03570980300801207 1.0847356885520272 -7.197272543024366
0.9695711103932949 1.4698963039572175 -7.206185812322031
1.8791958537169564 1.9231659860225827 -7.160432024883633
2.776748122858195 2.379604059720822 -7.039461655695469
3.677619034941145 2.790740789840876 -6.820181632698909
4.5780562904934365 3.0965409442009153 -6.469005668887478
5.433268524334356 3.180649842243031 -5.934287231521778
6.052154997722624 2.85448958032452 -5.211203476570744
6.129124978942837 2.126949504182554 -4.523239103378957
5.6940457898161165 1.3253125997241486 -4.089211651624374
4.9653100249385105 0.6532567259999286 -3.882973544412404
4.07789686624148 0.16822999376260628 -3.8175484163126963
3.1052472479131947 -0.11729255075051388 -3.806835092684856
2.096625260893824 -0.2048023564162436 -3.755666939689124
1.1160066258235601 -0.10097324571309421 -3.52433977637648
0.3360984445479926 0.12133638023325416 -2.925571697211601
-0.037118127004964134 0.25903534926106336 -1.9975945191751567
-0.09596317774080082 0.20929410294013162 -0.9875554254399487
0.0 0.0 0.0
0.16881769649760733 -0.3266224131979655 0.9454361189991883
0.3711124498965802 -0.7265350642882022 1.8555995471371254
0.586304169939902 -1.1499499915497486 2.75211790128243
0.8026756943997803 -1.531764510036245 3.666817494767673
1.0087242083503185 -1.7840759191506652 4.627012719703084
1.1880868061894216 -1.8203111042890299 5.623638211130851
1.3249589473660415 -1.614528505666016 6.606558053432973
1.412528992832485 -1.2037399677477125 7.529304927524613
1.4485462115672225 -0.6353211874181071 8.36826387936965
1.4301254607023637 0.05506060038402515 9.110870674729341
1.3519460029457457 0.8393183513899786 9.749143634231613
1.2092175954059596 1.691147836631438 10.280836621201415
1.0005254095707636 2.5837946896214685 10.71508672637987
0.7312033073883729 3.4920546938018986 11.078044252236579
0.413574474946634 4.395836377650197 11.412185917102535
0.062392668556361115 5.280026852168795 11.76451279383785
-0.30773476601813077 6.130265631689597 12.175902199178074
-0.6825671320381929 6.927071182963248 12.679315499130059
-1.0466451106354226 7.642396755730764 13.299120230555175
-1.380918626893017 8.2355323754372 14.050298673125576
-1.660848075196643 8.652161029714485 14.930634656581976
-1.8616030513399382 8.836216606956533 15.90641969264796
-1.975731790359256 8.766490450630313 16.910858360467806
-2.024840891394683 8.47555194145967 17.880744579698774
-2.0456236408753723 8.021564055164765 18.787365054670342
-2.071767862660729 7.458299861018808 19.63055631710008
-2.1294347912449876 6.828509177153787 20.42382098669481
-2.2405688706103 6.171907108845904 21.189106693017056
-2.42967130426855 5.5426818103766955 21.962227606575954
-2.732550935113695 5.045209641934775 22.79427158096308
-3.149733232998147 4.8578284208724964 23.660467231299464
-3.6598044674414876 5.131094886709948 24.529977565640273
LINES 1 65
64 0 1 2 3 4 5 6 7 8 9 10 11 12 13 14 15 16 17 18 19 20 21 22 23 24 25 26 27 28 29 30 31 32 33 34 35 36 37 38 39 40 41 42 43 44 45 46 47 48 49 50 51 52 53 54 55 56 57 58 59 60 61 62 63
POINT_DATA 64
SCALARS NodeIdx int
LOOKUP_TABLE default
0
1
2
3
4
5
6
7
8
9
10
11
12
13
14
15
16
17
18
19
20
21
22
23
24
25
26
27
28
29
30
31
32
33
34
35
36
37
38
39
40
41
42
43
44
45
46
47
48
49
50
51
52
53
54
55
56
57
58
59
60
61
62
63
