# vtk DataFile Version 2.0
Vessel Segment
ASCII
DATASET POLYDATA
POINTS 64 float
3.291743149638892 10.824557440979357 -6.986215153533679
2.4895125643954654 10.524480498137892 -7.5836063431123675
1.7150663385905387 10.077245547369657 -7.991069602623662
0.9699792495864101 9.477885558382146 -8.331199801895163
0.35228976479918034 8.719371838350435 -8.597471755839365
-0.06046930460185155 7.808683383051536 -8.757683644371667
-0.26656296209963876 6.816910726704154 -8.743222443486863
-0.3737146956277872 5.8375909073570975 -8.50554270734215
-0.48341028426746147 4.930395617815986 -8.066484265422638
-0.6026236669020913 4.100561894050275 -7.495487951330787
-0.6561726168533294 3.318212610794731 -6.852173997179279
-0.4986302479503499 2.56397421566679 -6.195015131006187
-0.00906429538890821 1.8832153205016378 -5.629188965301226
0.7021578825786956 1.308413091532943 -5.191114296370705
1.4915985620031031 0.802873310098151 -4.803192703492754
2.3096019611832816 0.3658789067203148 -4.392262689836116
3.167241168074474 0.07125774537597696 -3.939298060170508
4.07844885502993 0.016167058877589978 -3.500084446446075
5.0048383383168105 0.17363355141175216 -3.1190756792126297
5.904783823437646 0.42524456010095096 -2.734906391740074
6.722107324969393 0.6585811176025724 -2.163931347039512
6.539840141720032 0.49665922587645644 -1.2487683111895254
5.63925333018983 0.14610897793775238 -0.9205520915280181
4.687107009110968 -0.19281356971920655 -0.9560426321258828
3.777554201026683 -0.4891760092967965 -1.2878717595886744
2.9522646142569027 -0.702095608885757 -1.8367579998468142
2.170983401561258 -0.7781561439044461 -2.4779327708948418
1.3268068933305175 -0.6167967198202985 -3.0096239515184497
0.47435110170751454 -0.15148469779808682 -2.8547051726708244
0.03624025849263272 0.16021624352597116 -1.998846056937207
-0.08355339562901727 0.17871090989643662 -0.9941126308544475
0.0 0.0 0.0
0.24556034746533553 -0.2747523374171833 0.9446828120280265
0.6399233633093138 -0.5560191213675563 1.8355956323887552
1.162538947496019 -0.7738167396556821 2.6769660944574203
1.7591853142618792 -0.8993784034379375 3.487664278778006
2.3539152151425813 -0.9404101330339316 4.308500363755879
2.863947860594682 -0.9031759232572072 5.184051013448252
3.201772785600341 -0.7698162037416049 6.13004991138308
3.3085101184270402 -0.5106224352929005 7.103423261342327
3.201087054085819 -0.11946448813907358 8.03212049788569
2.941295771402053 0.37774866995582684 8.876799691586497
2.5743985957704103 0.9456253868720866 9.632751744598004
2.110540654982051 1.552841998885287 10.299612089749994
1.5569387019125591 2.193304918039858 10.85797389219164
0.9763491080371385 2.9055082498873785 11.286883352503185
0.46655941586979083 3.720935987862959 11.608374654986557
0.05570055951027463 4.605983432769872 11.885833324933635
-0.30670897230517397 5.507511188159155 12.178019814543825
-0.6785164899182315 6.386900449045256 12.520826037156535
-1.0820898873439764 7.2222948597829815 12.931151123408528
-1.4981431999353916 8.01087640155874 13.414971599751667
-1.8810808265800765 8.764666773496568 13.975431912613036
-2.188345537568414 9.486280519914033 14.61849162127016
-2.4069426470110886 10.146177960517033 15.356817780147816
-2.554429559043187 10.678884432850563 16.20650868886279
-2.661751175252401 10.990006967124216 17.164338054907258
-2.7563596755932056 10.996957034056267 18.172154978493936
-2.854030110799898 10.69473511958519 19.133839826406366
-2.9593693747778023 10.161111143338584 19.989118593356654
-3.072146948620556 9.502421541374714 20.752812764509525
-3.190535301482846 8.829875209514263 21.50406369953688
-3.304323987407437 8.319065160324392 22.342759607392438
-3.3862553095871677 8.295330982945806 23.376134340233993
LINES 1 65
64 0 1 2 3 4 5 6 7 8 9 10 11 12 13 14 15 16 17 18 19 20 21 22 23 24 25 26 27 28 29 30 31 32 33 34 35 36 37 38 39 40 41 42 43 44 45 46 47 48 49 50 51 52 53 54 55 56 57 58 59 60 61 62 63
POINT_DATA 64
SCALARS NodeIdx int
LOOKUP_TABLE default
0
1
2
3
4
5
6
7
8
9
10
11
12
13
14
15
16
17
18
19
20
21
22
23
24
25
26
27
28
29
30
31
32
33
34
35
36
37
38
39
40
41
42
43
44
45
46
47
48
49
50
51
52
53
54
55
56
57
58
59
60
61
62
63
