# vtk DataFile Version 2.0
Vessel Segment
ASCII
DATASET POLYDATA
POINTS 64 float
2.4903188531697036 12.339268287002414 -7.741940063065237
2.252268727792934 11.737744619493556 -8.56664986929693
1.9485594173327625 11.04685739822077 -9.184517991247551
1.5666629089549182 10.189557594593573 -9.575600962687773
1.1788844966389094 9.25594090957799 -9.643424297095995
0.8319626374896337 8.314894961203212 -9.493288544047825
0.5220907301971527 7.380107119194217 -9.249325127004717
0.23367878884183407 6.443590011060556 -8.986292275500809
-0.03014708266658084 5.494495272351719 -8.743560632959465
-0.22521997622685475 4.520644082104848 -8.537494448202851
-0.22046475070065505 3.52088808671039 -8.368271598305743
0.22724517849325826 2.632323532147078 -8.216145623843362
1.0571218428472848 2.0782869910675794 -8.0488453036342
1.9988073380429794 1.7660661443064405 -7.839710760429865
2.9542285310516725 1.5601243591770788 -7.567771348583189
3.8845539058539544 1.3829670695072431 -7.204259754978354
4.736053637186077 1.1704305127330925 -6.6976300441611265
5.349485867677462 0.8367097008198382 -5.967241871371343
5.31761987389574 0.33854403096010094 -5.102379991372453
4.620431595686461 -0.11733416173250887 -4.530711515691877
3.6734312433563474 -0.3997910048927471 -4.312862075859099
2.664583152205549 -0.48208449812368026 -4.350573726834725
1.6827469070737056 -0.3388996358068836 -4.555896352576216
0.7837871733651129 0.05154847497339565 -4.8128264076174165
0.01123572497046121 0.6923524035419342 -4.945769688086286
-0.5715332536473074 1.476349102557719 -4.694631359791922
-0.8992748082526087 2.0531616750120314 -3.937763803809521
-1.0189028721565045 2.201161421814046 -2.9450382564485094
-0.9918078630700318 1.9781245761385744 -1.958140522164472
-0.8172586623722974 1.469879971035267 -1.1000013358976186
-0.4792095224639755 0.7737249510344455 -0.4468371936671029
0.0 0.0 0.0
0.5584157813877761 -0.7778692489796548 0.3353767300965028
1.1297763838615886 -1.5397075472438917 0.6853433436974197
1.632662230836701 -2.2776161640682058 1.1651107377251704
1.96300293258056 -2.956693391536103 1.8399753976088753
2.0587482336858236 -3.5131227745951903 2.680816544982966
1.9459685489963867 -3.8980857829815694 3.611345765283011
1.6884616591857828 -4.0809665168782505 4.574419627263725
1.3453464869517369 -4.021089625764241 5.525889433904823
0.9785944104561991 -3.6749504798759056 6.404088655897394
0.6577970090558705 -3.058219883549467 7.140790059715739
0.4256271335966991 -2.261353510509445 7.722984811948826
0.28131390287932034 -1.378249174126039 8.20081050603153
0.20576132501564448 -0.46593499740330235 8.63805316953081
0.1820633416785291 0.44723434200617507 9.079526267864125
0.1970393270872712 1.3512153824031188 9.53994821904314
0.23442252876833147 2.252811735828339 10.003816277934254
0.27129729053062707 3.165219370595793 10.44595725843841
0.28200935817482087 4.0898509316055565 10.86347511193735
0.250022623627028 5.008411094507478 11.292995368260307
0.17240276863627466 5.883942215546219 11.799157902778887
0.059189283842886936 6.65458077310272 12.447817259612904
-0.0708837522076235 7.234714325169818 13.268109462055774
-0.20123745625602227 7.556181936564871 14.219862936867363
-0.33337150305494234 7.611873442863451 15.223148568668748
-0.4880193067264375 7.441145510431065 16.21039762724756
-0.6946418010436582 7.095560728217935 17.141111885433187
-0.980451845007911 6.629402115615921 17.995245474735604
-1.364870218874908 6.10768918514492 18.775432083274843
-1.856359374161914 5.612337557070823 19.51182027276853
-2.449405164804013 5.25447666826686 20.257432249406914
-3.064548453414331 5.1507240303761215 21.01011359176928
-3.6552338462760243 5.409171118432481 21.83409973629267
LINES 1 65
64 0 1 2 3 4 5 6 7 8 9 10 11 12 13 14 15 16 17 18 19 20 21 22 23 24 25 26 27 28 29 30 31 32 33 34 35 36 37 38 39 40 41 42 43 44 45 46 47 48 49 50 51 52 53 54 55 56 57 58 59 60 61 62 63
POINT_DATA 64
SCALARS NodeIdx int
LOOKUP_TABLE default
0
1
2
3
4
5
6
7
8
9
10
11
12
13
14
15
16
17
18
19
20
21
22
23
24
25
26
27
28
29
30
31
32
33
34
35
36
37
38
39
40
41
42
43
44
45
46
47
48
49
50
51
52
53
54
55
56
57
58
59
60
61
62
63
