# vtk DataFile Version 2.0
Vessel Segment
ASCII
DATASET POLYDATA
POINTS 64 float
5.441142097190531 16.627455950642933 -8.793250641835117
4.780227928505318 15.921475380396128 -9.152429726764
4.222893684550978 15.258068556465009 -9.631473164701541
3.7271558102026154 14.568357120231228 -10.204336282956454
3.331292433522167 13.862301651544596 -10.810709618717688
3.0246356147139455 13.099027740007095 -11.406109509263947
2.8077440985797675 12.259422735462282 -11.93208345180541
2.663213641917361 11.338410799555511 -12.331924915609843
2.5626406796117163 10.3584621241694 -12.574008954181554
2.4793759101875494 9.351528654020685 -12.665552654526085
2.397888948484027 8.340779380014617 -12.6329664962678
2.3092840282469296 7.338790899516655 -12.50082498720352
2.2030649691329667 6.353359988918585 -12.283811650311765
2.053193432396963 5.396211056775889 -11.982648219173802
1.7736753003762429 4.507527366526882 -11.580972895000286
1.1545021694886768 3.863391835012859 -11.113062633922409
0.24360779173930275 3.5410141173404646 -10.789493324977446
-0.6932314330313183 3.214037705414955 -10.59933323679008
-1.6206139966394522 2.8724132453604656 -10.319596865390052
-2.3441985681321746 2.8633472671031184 -9.652885070816252
-2.640471163334768 3.226181166588561 -8.740515364914977
-2.722484068576361 3.611911312603843 -7.807940057247475
-2.7437313878070677 3.8809220704673537 -6.829525407427549
-2.7446924290912436 3.948237290999783 -5.817577967310417
-2.739796103469543 3.7581441470592822 -4.821435046618546
-2.712302105865881 3.3256311252098385 -3.904427017691342
-2.6224573569284853 2.7233349258582322 -3.0931561741465323
-2.419725819078073 2.0347659893737196 -2.3762625271473232
-2.0540824500213533 1.343905523622858 -1.7297664064714782
-1.5020484419291569 0.7395769595751892 -1.1308983547542426
-0.794510386432726 0.2889269675788179 -0.5607526952731551
0.0 0.0 0.0
0.8196676422076601 -0.1672199763536639 0.5740935738300603
1.6192770128510376 -0.2715480014741279 1.1896962089676417
2.3495058858244677 -0.3920585623369151 1.8838833261320316
2.9077375075052125 -0.6542000785724348 2.6894028172009983
3.1738947504184543 -1.122011025579772 3.547270238613693
3.2145269345873553 -1.680514618354555 4.393551060980756
3.160602650924236 -2.2106572733072514 5.256885609151522
3.070082204163529 -2.6257496154268116 6.178145356835822
2.945085020095619 -2.8296922535174955 7.16354748028406
2.7765414012098484 -2.7493986534669226 8.160158458492583
2.5788661809232054 -2.4148537555493994 9.097220180982712
2.3763343716643153 -1.9156433352772193 9.956873807170115
2.185729544202371 -1.323669423352535 10.758542976102893
2.0171850427174065 -0.680757927661365 11.525130043529543
1.875308565403292 -0.003961546476684603 12.267547261380734
1.7604087450059485 0.7053481969951836 12.983845747960038
1.6680573342289735 1.4547447793079955 13.661536829526721
1.5856394805344483 2.252568586188305 14.28285236198173
1.490771197495448 3.0984193453706714 14.835029846314677
1.357873184947197 3.9794537590787487 15.320207130649141
1.1667715966041403 4.8757510752911 15.755540056344731
0.9067738525229938 5.766168917625947 16.166572769675817
0.5727023641576864 6.6294611850510465 16.581895442518945
0.160800963720608 7.441083967687443 17.030160648123704
-0.33058761125049074 8.166802279166909 17.541031056338344
-0.8950317040384453 8.7575556490025 18.142203820693716
-1.5045065239235813 9.156639851079136 18.84756868659036
-2.1026578028993708 9.329081934912933 19.649020098287338
-2.622590748905401 9.291800767738017 20.51607139638894
-3.004507527275635 9.087234258793412 21.44359901079348
-3.210785146507909 8.790658041800786 22.365571670092198
-3.207517090846514 8.428940203915106 23.33165437881356
LINES 1 65
64 0 1 2 3 4 5 6 7 8 9 10 11 12 13 14 15 16 17 18 19 20 21 22 23 24 25 26 27 28 29 30 31 32 33 34 35 36 37 38 39 40 41 42 43 44 45 46 47 48 49 50 51 52 53 54 55 56 57 58 59 60 61 62 63
POINT_DATA 64
SCALARS NodeIdx int
LOOKUP_TABLE default
0
1
2
3
4
5
6
7
8
9
10
11
12
13
14
15
16
17
18
19
20
21
22
23
24
25
26
27
28
29
30
31
32
33
34
35
36
37
38
39
40
41
42
43
44
45
46
47
48
49
50
51
52
53
54
55
56
57
58
59
60
61
62
63
