# vtk DataFile Version 2.0
Vessel Segment
ASCII
DATASET POLYDATA
POINTS 64 float
8.710648014634542 5.63167018897843 -7.760504693163868
8.417496635865254 5.279033545694079 -8.697807779433846
7.803231788831352 5.147691813537961 -9.447294163231147
6.964699999616297 5.162529202630273 -10.029400255408431
6.019606950489923 5.289455916124624 -10.371398837986845
5.029006129363009 5.4671902461094986 -10.49526488879044
4.037069877587942 5.649058726675743 -10.390480493208766
3.095702494444338 5.778437812915131 -10.037761902319577
2.2713643752254344 5.792423306835756 -9.44853662995418
1.5998166794177335 5.656885737463742 -8.701115053763587
1.0428614278316877 5.3909580044496215 -7.896059247806321
0.5180215246970521 5.0432099733288664 -7.100463612490584
-0.052416067430110166 4.661888910022632 -6.353233142345493
-0.7103646232988828 4.271235257301433 -5.687355441400005
-1.456521787760719 3.8636412573917216 -5.134247700796874
-2.2609237072189283 3.4060783159868167 -4.719189924130241
-3.070943237999744 2.8546792046031433 -4.457895003796048
-3.8150475958577883 2.1747226280770495 -4.348571269844117
-4.411675181182016 1.3551630352933757 -4.362641769058098
-4.77465269168385 0.41256854239954716 -4.445301123272552
-4.804912847120705 -0.5964994521407986 -4.5248197846526494
-4.44760939060869 -1.5435042712226081 -4.525415459272595
-3.780539459169177 -2.29653476870992 -4.406520952635772
-2.946377576370827 -2.8243154897792553 -4.1749099853434455
-2.0461603776245956 -3.1555796609762985 -3.845921545609959
-1.1379512209422609 -3.3085130329285652 -3.421475980881461
-0.27495443458683366 -3.2709112328429217 -2.890715717056472
0.44936037014557784 -2.9903909381142717 -2.239651497384864
0.8485922519230331 -2.410222130151918 -1.5153419386262117
0.8140061186180916 -1.628359047894448 -0.8738847300342844
0.4835886072277421 -0.8055258139079948 -0.3824139900710965
0.0 0.0 0.0
-0.5669149257120758 0.7758583686499085 0.325452970071831
-1.1850236472422124 1.5137889877445698 0.6459720421615825
-1.8380629322593525 2.192150055617654 1.0233480231923695
-2.5091214079800794 2.7575597726199406 1.5314119524130914
-3.161904230546527 3.12334301583052 2.2146260539735967
-3.749765475346284 3.2398160298108563 3.032120434992453
-4.2486227160065075 3.1367390537699014 3.9089687326906635
-4.6484054089892455 2.8634028570764856 4.800036787385501
-4.933525133576546 2.456302043530996 5.684104552031665
-5.082775699273203 1.9441304476923909 6.546728879633755
-5.0813092913125235 1.3575337386008435 7.3741147893901084
-4.931361891844576 0.7333876408004756 8.159496115931377
-4.648431145079446 0.11194334410369927 8.909656209585224
-4.250574386462147 -0.4626328562875065 9.644875636633872
-3.752736243224116 -0.9327858552504723 10.393189832996606
-3.1746237718156802 -1.214537170539199 11.176941913339599
-2.5607610136271526 -1.2216342220281604 11.983129889018754
-1.9688898551990257 -0.9486075258841759 12.759526537955471
-1.423437111433224 -0.47179147429178436 13.469258663095868
-0.9154107324744483 0.13233610872908322 14.106418994026122
-0.4270960453007604 0.8160283308680658 14.67500784089991
0.056470394759886404 1.5518960599282372 15.178970886391326
0.5449855264699673 2.3225716653304254 15.622467279277364
1.0397558496849768 3.115799285211336 16.016648408195735
1.5350697775296351 3.9219215723637104 16.383059019749865
2.020206265843428 4.7327391772923715 16.752683955994925
2.4810550146778656 5.540117310512153 17.158992130564314
2.900029634687702 6.334805209620881 17.630740589365583
3.2555201255399835 7.1039973332276976 18.184803259960944
3.520645155759574 7.841544263938323 18.8463226447822
3.6727246059712004 8.490686604832337 19.556462968265137
3.686386414467087 9.100439898707997 20.40552858035416
LINES 1 65
64 0 1 2 3 4 5 6 7 8 9 10 11 12 13 14 15 16 17 18 19 20 21 22 23 24 25 26 27 28 29 30 31 32 33 34 35 36 37 38 39 40 41 42 43 44 45 46 47 48 49 50 51 52 53 54 55 56 57 58 59 60 61 62 63
POINT_DATA 64
SCALARS NodeIdx int
LOOKUP_TABLE default
0
1
2
3
4
5
6
7
8
9
10
11
12
13
14
15
16
17
18
19
20
21
22
23
24
25
26
27
28
29
30
31
32
33
34
35
36
37
38
39
40
41
42
43
44
45
46
47
48
49
50
51
52
53
54
55
56
57
58
59
60
61
62
63
