# vtk DataFile Version 2.0
Vessel Segment
ASCII
DATASET POLYDATA
POINTS 64 float
9.352691939369464 16.37296156922864 -11.36045584504516
8.6018827765683 16.915951633850785 -11.391652801795026
7.617875805806355 17.507767584516035 -11.36500093464664
6.73311040495141 17.84669524762975 -11.232917083117595
5.752382062289499 18.06465422426788 -10.999711149357628
4.797052519024633 18.071153433223802 -10.660365333100462
3.8910160390799273 17.892045585378145 -10.239510405954817
3.05287031846464 17.567070946320346 -9.767144606466655
2.281351135548856 17.13748636244587 -9.26699895664224
1.5624781737022024 16.63714550511691 -8.75448746736911
0.8840343881450792 16.08608181023372 -8.23911609003496
0.23758671934001707 15.493510691816862 -7.728698524033788
-0.379313356261056 14.858835597110284 -7.232510380007646
-0.9621300979256339 14.172039277254415 -6.764873902146566
-1.497235689213731 13.415840778550658 -6.35051321817648
-1.9655904418383785 12.577757788917793 -6.020648680700988
-2.35741989692709 11.67010770406082 -5.791806567916528
-2.686804503931956 10.721891502029932 -5.641660256372102
-2.975926424727642 9.7560184443978 -5.527617119933993
-3.2396462970120252 8.783702967781599 -5.407195544439499
-3.4785537017672987 7.810363901698463 -5.248598163649148
-3.681372110832678 6.840261478108714 -5.030533156153189
-3.827725540470133 5.87899198832818 -4.7398037111056945
-3.8906973408811836 4.935346291475354 -4.371365387597808
-3.8406586803693235 4.023042110226554 -3.929102419740884
-3.6512760169974774 3.1617300478817443 -3.425799348665082
-3.308684164488344 2.3755106270049327 -2.8823987484669447
-2.8212253136794656 1.68501809720116 -2.3201006693621458
-2.214641411484438 1.1011216199005742 -1.7527956237066833
-1.5222961980511802 0.6262573259799383 -1.1823925831371058
-0.7751256070603045 0.25891846139622904 -0.6019381150136028
0.0 0.0 0.0
0.7791311329416049 -0.14367998427405337 0.6344319213314769
1.5373087158587706 -0.15796025102059827 1.3093279063419423
2.2439092333071775 -0.018752475126877062 2.025093799922762
2.8565522529929366 0.3052141808046803 2.7683947325897975
3.314374318182441 0.8405520795307335 3.501185964580992
3.5619813324572855 1.565468594012337 4.167912493489839
3.5855000159410717 2.4110654272965806 4.73185650773719
3.4171981134490395 3.2983708805102427 5.196173224699901
3.1030209732594765 4.178814412368764 5.591534769044297
2.682509379273195 5.027783792857035 5.9553815059940005
2.1875084839564662 5.833236200946056 6.32423372993401
1.6455490283408283 6.588039758441468 6.7320337721806585
1.0837941415574337 7.285863883110664 7.208898741419588
0.531757182581116 7.9205830490412135 7.776876846424591
0.019769041071363305 8.488412610408732 8.444327544420075
-0.42849199413357214 8.991271397585576 9.203484117827065
-0.8007278938070315 9.437629331173005 10.03559197373262
-1.0960830542221003 9.840596521716447 10.918870196748534
-1.3209277247171967 10.214069004228561 11.835227164727803
-1.4841108557620502 10.570061217874084 12.771277679842536
-1.5921118115353623 10.917714637802732 13.71842941847842
-1.6471702255644063 11.264087424483462 14.670566291677178
-1.6476079142912585 11.615587970659401 15.622398788265826
-1.5884578420932316 11.979749318194237 16.567689605704018
-1.4631171844190227 12.366579993429214 17.497320224552038
-1.2640898444108082 12.7928656984676 18.396940636051465
-0.9882000495553507 13.277356081240805 19.244570548733876
-0.6370323313499617 13.844306497285494 20.007470306614668
-0.2109377130539579 14.535224713151607 20.642299142184754
0.22131689533241286 15.256160771170714 21.104758517687337
0.7502457789544319 16.234590590924316 21.382704672456914
1.1669011963292957 17.058086215859486 21.480195560576956
LINES 1 65
64 0 1 2 3 4 5 6 7 8 9 10 11 12 13 14 15 16 17 18 19 20 21 22 23 24 25 26 27 28 29 30 31 32 33 34 35 36 37 38 39 40 41 42 43 44 45 46 47 48 49 50 51 52 53 54 55 56 57 58 59 60 61 62 63
POINT_DATA 64
SCALARS NodeIdx int
LOOKUP_TABLE default
0
1
2
3
4
5
6
7
8
9
10
11
12
13
14
15
16
17
18
19
20
21
22
23
24
25
26
27
28
29
30
31
32
33
34
35
36
37
38
39
40
41
42
43
44
45
46
47
48
49
50
51
52
53
54
55
56
57
58
59
60
61
62
63
