# vtk DataFile Version 2.0
Vessel Segment
ASCII
DATASET POLYDATA
POINTS 64 float
8.098178184461506 21.437254714160566 -11.78319295425124
7.507019198671994 20.85326184760281 -12.061326390862837
6.67759556308185 20.017880304233962 -12.367504144939534
6.028750365122299 19.337458553160612 -12.44356148180913
5.332057610323355 18.592384795272167 -12.381900189015346
4.661616006091445 17.86350535397582 -12.126579471152079
4.04569310773107 17.192686681196196 -11.684586202853326
3.474371376661102 16.584049015016262 -11.104911581348146
2.9379894455223208 16.03749940717418 -10.438844016805389
2.4148160496886333 15.537005571312898 -9.728033367418043
1.8835324224102197 15.06506041128401 -9.003743358174864
1.3272732483835292 14.606457705254199 -8.28976325572433
0.7340916651418634 14.146584303813976 -7.606823442519006
0.09911989935761813 13.669278341075714 -6.975257408179821
-0.5728292004091952 13.153538671486258 -6.416023851007049
-1.2620057744927746 12.57214993016647 -5.9489000694875465
-1.9246704111498452 11.895322277952268 -5.583695442808691
-2.5107318974244044 11.114993792476842 -5.30306026572168
-2.9835991890743583 10.248060058762675 -5.066401715986391
-3.339190346834384 9.327880063251383 -4.826871819285349
-3.591049207409305 8.38232303206076 -4.5570630481957615
-3.755497305754204 7.430069196398503 -4.246784389784945
-3.842549659074011 6.481236884134896 -3.8973595905669574
-3.8534456588155166 5.541248124672394 -3.514841496650335
-3.781808142970078 4.6148585668835675 -3.106387930535264
-3.614358992030099 3.709214741094257 -2.679600198636007
-3.33192202582044 2.8373944649644534 -2.242206933047336
-2.9146385699902213 2.0232817589168333 -1.8014242712092736
-2.3534353118842497 1.2997523088707026 -1.3615765677335945
-1.6581843984393088 0.7038761628842051 -0.9214384612866434
-0.8598903079098504 0.264778387492523 -0.47186645261375293
0.0 0.0 0.0
0.8764887391871448 -0.08196799537758868 0.5071582467568506
1.7224490373542851 0.023755607755493503 1.0606405951255693
2.482644462839092 0.32691895052759823 1.6646175167276474
3.087739220190526 0.8306712236436045 2.308393737253647
3.463630861882691 1.515059446992217 2.9622111446352197
3.5729934639213505 2.312316932961972 3.5824283658372105
3.4439138777666614 3.1479399933287096 4.148483330373583
3.144804799654224 3.9667839340936637 4.668778442713342
2.7397774505621313 4.749041586688344 5.172910933525141
2.2759488482766077 5.486831114340056 5.6930537624832205
1.7904603335201832 6.17395479669869 6.260509335964369
1.3160035235573717 6.8011792767166215 6.902522237847192
0.8824920270065847 7.356189892811372 7.633462399212443
0.5073120002022019 7.834204365451048 8.44672817513124
0.19319728225194266 8.24352086331283 9.320764578248667
-0.07092641264292553 8.607331633355093 10.230465769197203
-0.29789599303961234 8.954782868919471 11.156401631515681
-0.49732994994949725 9.315815174623369 12.083413045964988
-0.6729695410216258 9.717357759162358 12.99871912912182
-0.8219657034071722 10.17744058225126 13.890815983527318
-0.9383372675628092 10.698639990992937 14.75373614757762
-1.0170355364955996 11.268918910904555 15.589421543991476
-1.0576179037631088 11.867078908947073 16.408081654808157
-1.064330678858112 12.472893294160379 17.221760035234475
-1.0471016133809279 13.073098469029624 18.039827044153725
-1.0195290662130527 13.66371405665461 18.865351403581684
-0.9962671976022107 14.246541011867015 19.69102425550181
-1.0094842553269647 14.856924235178104 20.509665072521667
-1.081432883654728 15.508003771790147 21.29215690583913
-1.2099473328595203 16.157444279017398 21.974364589049863
-1.581216748739248 17.110856343810607 22.618308158385812
-1.9216502934073092 17.833218608422676 22.987493376049205
LINES 1 65
64 0 1 2 3 4 5 6 7 8 9 10 11 12 13 14 15 16 17 18 19 20 21 22 23 24 25 26 27 28 29 30 31 32 33 34 35 36 37 38 39 40 41 42 43 44 45 46 47 48 49 50 51 52 53 54 55 56 57 58 59 60 61 62 63
POINT_DATA 64
SCALARS NodeIdx int
LOOKUP_TABLE default
0
1
2
3
4
5
6
7
8
9
10
11
12
13
14
15
16
17
18
19
20
21
22
23
24
25
26
27
28
29
30
31
32
33
34
35
36
37
38
39
40
41
42
43
44
45
46
47
48
49
50
51
52
53
54
55
56
57
58
59
60
61
62
63
