# vtk DataFile Version 2.0
Vessel Segment
ASCII
DATASET POLYDATA
POINTS 64 float
10.445701522294858 11.570415998367535 -9.239392270874795
9.45509896146156 11.671819313030507 -8.910842418455879
8.52582009115056 11.646646767245842 -8.620640023838714
7.550344588272204 11.54491666896776 -8.33537303173962
6.581552509809244 11.392230218932314 -8.075766465389966
5.609879394997206 11.221000690496405 -7.840115783424978
4.6323095562924514 11.053674537861616 -7.626016450765677
3.648875589686082 10.899016695664338 -7.430170921964754
2.6611879985841567 10.751981240415702 -7.2505692317660975
1.6720066398844269 10.596879195687558 -7.086623613481868
0.6859870940746872 10.413473330346529 -6.933329775939991
-0.288977899672569 10.182422142461029 -6.77407378759746
-1.2397795736032144 9.88810947172978 -6.577821002305862
-2.1429473040960114 9.51793414400385 -6.302244038180431
-2.9536224105935154 9.057548918006217 -5.90395754862391
-3.5913612626700924 8.4728929023718 -5.376574271982107
-3.970055405322065 7.697347907726783 -4.847893471682685
-4.122949617681748 6.753931227378578 -4.512303566521172
-4.1793029954862995 5.748862689882761 -4.389319191196499
-4.19807902964796 4.73459777683207 -4.392021523434981
-4.161719893372532 3.7225009001796687 -4.452214274181667
-3.999214456984106 2.7238064192745486 -4.520095661632848
-3.5947595347252146 1.7957439143117653 -4.5451926243904
-2.9095358647492575 1.0527727326593863 -4.4846827985247035
-2.0644892575509664 0.5137456749952332 -4.332104179135979
-1.1678735104674616 0.10690199373358043 -4.088276984256271
-0.2771272902434923 -0.22627798929988316 -3.735527453104031
0.5515055134861389 -0.5106192397746762 -3.226803118257916
1.1772144336396915 -0.7178807678471754 -2.458562138020316
1.202938415670957 -0.6835859777183617 -1.4590578752263939
0.679618170817145 -0.3948763336594012 -0.6401292754653207
0.0 0.0 0.0
-0.7032624192019775 0.452489657931738 0.5745467247576325
-1.3667065381625811 0.9462183875929071 1.1621313403112143
-1.9377907716541487 1.4617995392651884 1.8229228642550304
-2.3874313615034355 1.9606509125560583 2.582809151303558
-2.737301166393236 2.4005692169971375 3.427183208267968
-3.0398348439721428 2.7599801439522063 4.326305401859757
-3.3358821349173358 3.0362371205100076 5.2564548457042175
-3.637044924035886 3.239935869559083 6.203671068745281
-3.9295586272773146 3.391163267450881 7.163267213295622
-4.186461911126505 3.5142634788310714 8.137042122692817
-4.37617266811037 3.635605976777869 9.126159872824726
-4.469341137220627 3.7836301065257785 10.125402445830794
-4.4425163839437225 3.989385292636403 11.118107976997598
-4.274882760755542 4.282684174564822 12.0741100730513
-3.9537542064185343 4.680705918324626 12.949497542742444
-3.4906175043458356 5.173540980775568 13.7048493044788
-2.9198492217326306 5.732508882232287 14.329621280965673
-2.277678150043458 6.333041718794324 14.835427689303888
-1.5941334258788786 6.965425082404625 15.237856905500477
-0.8954701960749027 7.632103994369814 15.54842518488237
-0.20944931921401846 8.3429964701004 15.778902132003793
0.43357859837951224 9.108858943539136 15.949330807395443
1.0060328902322637 9.933753715782135 16.094029137260705
1.4939839618822643 10.807839407003602 16.258275714155385
1.9051329172664069 11.7069536253628 16.48534340213206
2.2624560822160205 12.6007062917912 16.805552558922493
2.592762037845065 13.459895609745026 17.231627191290706
2.9135159356799307 14.262480742218967 17.76246271450539
3.219229928172729 14.996043470329678 18.39284207510188
3.4614825659039457 15.657241493110108 19.125443924866666
3.551771921635229 16.227514217261913 19.933593680677607
3.02644741347913 16.64721275477554 20.717563126240425
LINES 1 65
64 0 1 2 3 4 5 6 7 8 9 10 11 12 13 14 15 16 17 18 19 20 21 22 23 24 25 26 27 28 29 30 31 32 33 34 35 36 37 38 39 40 41 42 43 44 45 46 47 48 49 50 51 52 53 54 55 56 57 58 59 60 61 62 63
POINT_DATA 64
SCALARS NodeIdx int
LOOKUP_TABLE default
0
1
2
3
4
5
6
7
8
9
10
11
12
13
14
15
16
17
18
19
20
21
22
23
24
25
26
27
28
29
30
31
32
33
34
35
36
37
38
39
40
41
42
43
44
45
46
47
48
49
50
51
52
53
54
55
56
57
58
59
60
61
62
63
