# vtk DataFile Version 2.0
Vessel Segment
ASCII
DATASET POLYDATA
POINTS 64 float
9.059841604683468 16.006948714436152 -11.592554009637023
8.195973013817063 16.198898196812646 -11.644324721783034
7.010218321897842 16.39637284545249 -11.713463844578012
6.069779578317012 16.427881094090512 -11.754684443896041
5.048207521785506 16.338604054391848 -11.75793263866428
4.068877828300458 16.047622823211437 -11.652168508885877
3.259796447896353 15.55408920698019 -11.308925791860178
2.6693266435150624 14.9831523687717 -10.700249507244118
2.2508752306986457 14.49285606984346 -9.915597636236692
1.8774520628367866 14.106686890619617 -9.053941005855357
1.4802830781531315 13.805303838660663 -8.170253879416448
1.0338609307748965 13.55627979807138 -7.293555490555828
0.5297254266145324 13.322615452267382 -6.444456086504034
-0.028541082310028977 13.06402250306106 -5.637269546971405
-0.6310465890571972 12.74018134727465 -4.8872153855613085
-1.260556449059893 12.316161646631937 -4.212932228946533
-1.891709022565789 11.770269078805981 -3.6341992110321257
-2.4960346841778205 11.106807399557114 -3.1595757793452672
-3.0529463595939803 10.346543444976316 -2.781380596630818
-3.550970618384358 9.515177637007453 -2.4796929809804107
-3.9842379056475594 8.631572957267375 -2.2316261898691585
-4.343817061884786 7.7069909936809395 -2.017135816194567
-4.610518937159396 6.747377017595565 -1.8211419171126597
-4.748254368894161 5.758714307918045 -1.6338677719516863
-4.699349492552765 4.75984830141289 -1.4514708487144337
-4.425692574479333 3.7984906345609515 -1.272298969841461
-3.935959679736655 2.9254709469141087 -1.0936839448533764
-3.2878788276302977 2.165571911850961 -0.9100907774399302
-2.538053771182072 1.509293105353477 -0.7153217628583269
-1.7260447276227318 0.9385319071765988 -0.5032956970019472
-0.8751667303939235 0.438173770280009 -0.26746888970697086
0.0 0.0 0.0
0.8902270138412363 -0.37623760332048684 0.3117506681559515
1.7830220694416217 -0.6798057493399504 0.6850085114006693
2.6602879538365314 -0.8826056414235367 1.1510938214104822
3.484666864904253 -0.9219511824628608 1.7667015811804394
4.065836245412469 -0.6515415492264143 2.543923485338832
4.246080724949462 -0.044970734791611774 3.3531303859636945
4.060684765555832 0.7301096696160612 3.9838549705559823
3.704265745382967 1.5571396462729523 4.461430974092485
3.2845430517170944 2.395870591858404 4.844710743877187
2.832650430771055 3.2424533899539805 5.17530699714837
2.3698948262429096 4.091039992938325 5.4841570426283655
1.9060850698748675 4.937977841196996 5.795344099557961
1.447025745789365 5.778656238345893 6.130167813088621
0.997772194387128 6.605753114088232 6.5092733946300285
0.5634986668701825 7.408535193801267 6.9531341682942465
0.15131787074277434 8.171568064607534 7.48046013231949
-0.23066708748057468 8.876954323927741 8.10247954744438
-0.5747965675114017 9.508423298768097 8.819034307507254
-0.8771596381097577 10.057420939496605 9.61745628453226
-1.1377357564983126 10.5251176025551 10.479786425931874
-1.3599688270193224 10.919506045046807 11.388146742292221
-1.547959629574645 11.252041792345747 12.328283944039965
-1.705509456553629 11.534021633255435 13.290331017515426
-1.8344438073225953 11.775212082807904 14.267293728101457
-1.9335640183041702 11.983306099643787 15.255379921231581
-1.9984515599560704 12.163586456257558 16.253072217863163
-2.0250278335869036 12.319199063511858 17.251416161590488
-1.9961386256548075 12.452252481886871 18.26220735567596
-1.9013618415499691 12.56296477657085 19.276619394500806
-1.7639311132586037 12.648508074712053 20.205969865069605
-1.4162619771531864 12.714987006412906 21.354764940423472
-1.0939822161602673 12.748180103289018 22.180867998673612
LINES 1 65
64 0 1 2 3 4 5 6 7 8 9 10 11 12 13 14 15 16 17 18 19 20 21 22 23 24 25 26 27 28 29 30 31 32 33 34 35 36 37 38 39 40 41 42 43 44 45 46 47 48 49 50 51 52 53 54 55 56 57 58 59 60 61 62 63
POINT_DATA 64
SCALARS NodeIdx int
LOOKUP_TABLE default
0
1
2
3
4
5
6
7
8
9
10
11
12
13
14
15
16
17
18
19
20
21
22
23
24
25
26
27
28
29
30
31
32
33
34
35
36
37
38
39
40
41
42
43
44
45
46
47
48
49
50
51
52
53
54
55
56
57
58
59
60
61
62
63
