# vtk DataFile Version 2.0
Vessel Segment
ASCII
DATASET POLYDATA
POINTS 64 float
8.302676817107454 4.912177824178378 -6.820675252137778
8.054701914086612 5.64406430598467 -7.524817974933592
7.568804623351937 6.272018083285785 -8.09085222092594
6.9008765085697155 6.873737822201814 -8.580480703424708
6.114408296902606 7.402517847729031 -8.937913863937794
5.246673849510187 7.873070360903018 -9.171430341108374
4.3242486387145345 8.281560232388847 -9.276826034959543
3.3673678721225784 8.616295782942641 -9.245421940872019
2.397887741429803 8.848248383445013 -9.059602033939527
1.454444538213864 8.920261803128557 -8.696249794170573
0.6139914241979416 8.759751565804883 -8.154290575344682
-0.05362734115735523 8.365119919151436 -7.501529507117395
-0.5901505901606915 7.832951369546958 -6.824576046584899
-1.102398813997888 7.252523996123767 -6.168763720841208
-1.6744413930168538 6.669172445106567 -5.5674898043352465
-2.3357593266759666 6.094569135369359 -5.056218111621375
-3.0626759528964915 5.513982294284016 -4.651823396460988
-3.810147386549357 4.896311999813036 -4.3535741329600315
-4.517699221133368 4.197073561315711 -4.15618985220838
-5.062072441575413 3.3475223038965285 -4.056575371242222
-5.151772904426614 2.346660862222334 -4.048611955363243
-4.689105663311904 1.445540211933601 -4.0806286372006735
-3.9676567100208393 0.7327064031877315 -4.096457093475696
-3.152560300339179 0.12897151608123178 -4.078760328969341
-2.300564664971911 -0.4181673748773516 -4.015725484229994
-1.439217262514774 -0.9384319986021193 -3.8849381625074697
-0.59334235722289 -1.4360610638058324 -3.632495608339365
0.1767093999197464 -1.8465473589719992 -3.118845131274481
0.6096352369374312 -1.8686916878475934 -2.214804878004346
0.5861527970146924 -1.4178224648849642 -1.3049884804531922
0.3527343841890845 -0.7603729985380032 -0.5710476694628052
0.0 0.0 0.0
-0.45118090728899585 0.808303320330278 0.41424402825060924
-0.9992255855885532 1.6165259383073944 0.6882896606370946
-1.6455061646026208 2.3785762440235563 0.8629953372002165
-2.386636184165829 3.055402722992316 1.0097776711017028
-3.204464390850045 3.6134728926613504 1.229055470826605
-4.041828747206481 4.011429221423786 1.638032805209699
-4.775169265338949 4.2079662392715615 2.3077852620301753
-5.2791149904412835 4.205980969923991 3.1863759116582373
-5.523592973249767 4.05340768630422 4.1581935164972785
-5.553089965804978 3.799686963788785 5.139572138291934
-5.424378126707991 3.4780376777781994 6.092863177757293
-5.190659539194426 3.1107134173818136 7.009170041150251
-4.899513671917925 2.716884892079194 7.897698334014346
-4.5914824899554745 2.3172132377896184 8.778022562905958
-4.2980409750461535 1.942169979746933 9.673796756499968
-4.03146687763011 1.642717894182007 10.605708681624241
-3.7653624576944917 1.4995514173987938 11.57361881698405
-3.419907564453499 1.6112228336256913 12.519576207087525
-2.911878187452481 2.017323871134479 13.295157235962652
-2.262291980629857 2.595955289702483 13.815713950462492
-1.5369044622467973 3.2152282871850106 14.161000774711672
-0.7681758081118939 3.8251488492209256 14.418583916464032
0.02863817817368048 4.412270835480857 14.641725389098589
0.8429705775918976 4.976076750505635 14.861703260642182
1.6636536034080156 5.525088831253743 15.095123666302943
2.47846785032813 6.0738394003742915 15.348784480044044
3.2744468831325637 6.6393258357488145 15.624584789148487
4.039055327562802 7.232729171310669 15.929164636106131
4.759528334806417 7.851152765323147 16.281650881943143
5.428987714712657 8.48562147822117 16.7291561820413
5.999065856383655 9.072092600242968 17.257662721128398
6.5013142858991415 9.63354851350607 17.983476995186205
LINES 1 65
64 0 1 2 3 4 5 6 7 8 9 10 11 12 13 14 15 16 17 18 19 20 21 22 23 24 25 26 27 28 29 30 31 32 33 34 35 36 37 38 39 40 41 42 43 44 45 46 47 48 49 50 51 52 53 54 55 56 57 58 59 60 61 62 63
POINT_DATA 64
SCALARS NodeIdx int
LOOKUP_TABLE default
0
1
2
3
4
5
6
7
8
9
10
11
12
13
14
15
16
17
18
19
20
21
22
23
24
25
26
27
28
29
30
31
32
33
34
35
36
37
38
39
40
41
42
43
44
45
46
47
48
49
50
51
52
53
54
55
56
57
58
59
60
61
62
63
