# vtk DataFile Version 2.0
Vessel Segment
ASCII
DATASET POLYDATA
POINTS 64 float
8.472293639777806 9.315581969489026 -10.410572645574048
7.881930409661733 10.10514894061534 -10.649750845516431
7.221426316957999 10.862339123432342 -10.792093434689882
6.50576325234744 11.579328061172571 -10.846398743067873
5.745331055870138 12.250546295483574 -10.819454403738035
4.948338520153763 12.86982311453585 -10.716059317149124
4.121030701733974 13.429850968770321 -10.538954904235212
3.2688808257841986 13.920809960460872 -10.289520504062363
2.397797650431648 14.328996781143395 -9.966986099970983
1.5163780969868401 14.635577757501164 -9.568821292257798
0.6391163707037723 14.816509189237903 -9.092270057541876
-0.21051231321469865 14.846234630719351 -8.538488581005844
-1.0014909688655615 14.70726165623604 -7.918446143209551
-1.7044030269285162 14.399617876238196 -7.254602912898215
-2.3043150434473563 13.943942493930287 -6.574971009624601
-2.8041980627238825 13.370193123515055 -5.903883497450326
-3.2157559951986077 12.704563395616393 -5.258147604886086
-3.5511865805579035 11.96513491855107 -4.649695061662573
-3.817338125382599 11.162697308496867 -4.088822606842523
-4.014702250415857 10.303818169487888 -3.5859632167853777
-4.137076263953203 9.39508160309338 -3.151673665918875
-4.1740908604967375 8.44654784545002 -2.7933688035886783
-4.114484024437829 7.473800675195313 -2.5112362493734692
-3.951363613861634 6.496243901527568 -2.2940058113180424
-3.6853218687487868 5.532983200605218 -2.1185152598042127
-3.3245467817475935 4.5987497050576 -1.9558277284052743
-2.8819526285679875 3.7030276817697207 -1.7791187841535583
-2.3727170958541475 2.851711139132147 -1.5661202458458556
-1.812698975040609 2.048814545570911 -1.2994156958460819
-1.2177768808276275 1.2987388293684883 -0.9634413793711992
-0.6054493931974585 0.6096251738325849 -0.5395867059163834
0.0 0.0 0.0
0.5503085812578367 -0.4853680558139761 0.7005908650795684
0.9248381490345607 -0.7377215375172479 1.609209436518909
0.9190368480018255 -0.6061791407278772 2.614789294342496
0.5393034897763088 -0.1565460597683447 3.441210149770913
-0.030400486857099115 0.4403312579685189 4.031516773615982
-0.6776608614339406 1.1081051372618538 4.437255501481046
-1.3444235193370377 1.8233789708500194 4.707838408198297
-1.9957216054981683 2.581610549394232 4.882020202070204
-2.6048565705276667 3.3852515970010923 4.993877605825427
-3.1472366011013464 4.23837550370121 5.080205429882411
-3.593955240617278 5.142765823538306 5.1894242613146675
-3.905886361827367 6.087372370622996 5.389013739853098
-4.035437962694511 7.020749555410971 5.765005770257426
-3.9627964599627754 7.833874264205379 6.367387171288767
-3.7381445029716365 8.441004579917605 7.148685851928542
-3.4354497776828556 8.850745297964279 8.0260653047567
-3.1013582727856703 9.109876965394141 8.948407342329547
-2.7573127680484326 9.262205768207306 9.890725522132186
-2.411723526110654 9.340448489385937 10.841410518932788
-2.0663691876639723 9.36919626510951 11.794943509775171
-1.7193699219969922 9.368013552126005 12.74840849378441
-1.3660125602188684 9.35390825617053 13.69936333815977
-0.9983550094468228 9.342492200953911 14.644986751783621
-0.6061691573469685 9.348325320192503 15.580635451238484
-0.17806996244751494 9.38355632189122 16.499925824682833
0.2953320969848877 9.455648373467861 17.39440793388288
0.8182890716213314 9.565237829970256 18.25692960074675
1.388527141371446 9.705606905011482 19.084275461589286
1.9993431806035773 9.866393698774054 19.878336146240617
2.642011304291835 10.036606361449348 20.64446107779937
3.3094986757775158 10.206877045653522 21.390056427792278
3.9940597636112525 10.369701062808646 22.12060014662709
LINES 1 65
64 0 1 2 3 4 5 6 7 8 9 10 11 12 13 14 15 16 17 18 19 20 21 22 23 24 25 26 27 28 29 30 31 32 33 34 35 36 37 38 39 40 41 42 43 44 45 46 47 48 49 50 51 52 53 54 55 56 57 58 59 60 61 62 63
POINT_DATA 64
SCALARS NodeIdx int
LOOKUP_TABLE default
0
1
2
3
4
5
6
7
8
9
10
11
12
13
14
15
16
17
18
19
20
21
22
23
24
25
26
27
28
29
30
31
32
33
34
35
36
37
38
39
40
41
42
43
44
45
46
47
48
49
50
51
52
53
54
55
56
57
58
59
60
61
62
63
