# vtk DataFile Version 2.0
Vessel Segment
ASCII
DATASET POLYDATA
POINTS 64 float
9.911125698053324 11.990331403076603 -8.693012798762956
9.111770215885219 11.320397098244447 -8.61505531661504
8.243660387244434 10.883556108287143 -8.546997406822287
7.273234858198094 10.559246466101733 -8.489327190007307
6.284868951462274 10.340634408394385 -8.452955113263288
5.286358862559553 10.160617353656525 -8.438796774644375
4.2891703638441 9.973452757757979 -8.445334177606318
3.302705060996321 9.737418372642965 -8.466282460907935
2.341919340540951 9.412670914028661 -8.489034910757228
1.4304796400734778 8.96762817595057 -8.487749640629321
0.59170710792683 8.402093046646128 -8.414904383394703
-0.16909112601263532 7.765507017559953 -8.204089754271807
-0.8681546118148069 7.15413010021862 -7.797516825652751
-1.5323269039603518 6.66214804072487 -7.21018711512083
-2.18437244314999 6.293797781460097 -6.525764719140472
-2.835711215391827 5.974373672196829 -5.8164864658290165
-3.4816970138021985 5.608524827754134 -5.125058894955172
-4.082988532555081 5.094021954717878 -4.491181390542434
-4.530179352028712 4.344264477304436 -3.9780945294473966
-4.664083721162277 3.395261172307754 -3.653869767849196
-4.431939452855385 2.420260893058407 -3.5085793987739815
-3.9105745573890953 1.5519529102020733 -3.4701062027864236
-3.1970323152463713 0.8314372955995357 -3.474334179287932
-2.364493651809729 0.2521410547462122 -3.4788327376529113
-1.4609353735806687 -0.20825102174279034 -3.4534116717976024
-0.5185454883753279 -0.5736772242850686 -3.36887386246187
0.4358484372213334 -0.8617661794636761 -3.1786401404542604
1.3454546435448416 -1.0711412009318988 -2.786750114156519
1.886226111492109 -1.1009022533336128 -1.9610193077607658
1.5127981628261344 -0.8238629045862389 -1.055564347440602
0.7936535392732019 -0.4372309056925607 -0.45610011115616766
0.0 0.0 0.0
-0.808261196837504 0.48112203987845437 0.3801503247088002
-1.595593662582721 1.0090066138793867 0.7419054973956049
-2.3185987761715383 1.5879157982914336 1.1555032117897521
-2.8947912814650048 2.197624932108769 1.7245376607578622
-3.2104490866780027 2.734642245411728 2.5223295548246996
-3.284187807274521 3.0875793619386562 3.469681597782542
-3.2575764120468884 3.267705335823501 4.467492591420199
-3.225559313830333 3.320884563538259 5.48007710747057
-3.2283144619438566 3.2804388525675656 6.493675340087627
-3.2739840148344523 3.173274692973065 7.501586748731986
-3.3490015549622774 3.0272798756357826 8.502772651000612
-3.4226391382505583 2.8763976319752587 9.503409935944243
-3.44614259430015 2.768089575940228 10.511773909789822
-3.3517013837153744 2.7708469506475972 11.521331601699929
-3.0743793442835754 2.96117016379758 12.477036986860027
-2.619324734369053 3.3535448645355186 13.29322987188464
-2.0620929291578953 3.886244216162695 13.952265274325901
-1.4713836294024003 4.499439694721518 14.504002228449913
-0.8888529852621636 5.16542438749513 15.000339100458861
-0.34478209438341123 5.877376922880589 15.476225625662456
0.13461649774959641 6.636164414160955 15.94904087354593
0.5295334309478977 7.442576695543891 16.42112533057394
0.8339412091855783 8.290842777781348 16.886950221726753
1.0606140995434385 9.168770143346562 17.342064195201598
1.2401486105090718 10.06071075427575 17.791182362389822
1.4130670485253891 10.950094721454576 18.247716638633715
1.6197019327253057 11.819446314498702 18.728178666332763
1.8908552733944952 12.649638900924012 19.24460037497687
2.236442716249053 13.423056512016135 19.79925536809358
2.655416919768754 14.141167511890277 20.400675173730328
3.0959438053807293 14.767450472750525 21.000489674976315
3.6023016307250226 15.37949479343115 21.681984420373983
LINES 1 65
64 0 1 2 3 4 5 6 7 8 9 10 11 12 13 14 15 16 17 18 19 20 21 22 23 24 25 26 27 28 29 30 31 32 33 34 35 36 37 38 39 40 41 42 43 44 45 46 47 48 49 50 51 52 53 54 55 56 57 58 59 60 61 62 63
POINT_DATA 64
SCALARS NodeIdx int
LOOKUP_TABLE default
0
1
2
3
4
5
6
7
8
9
10
11
12
13
14
15
16
17
18
19
20
21
22
23
24
25
26
27
28
29
30
31
32
33
34
35
36
37
38
39
40
41
42
43
44
45
46
47
48
49
50
51
52
53
54
55
56
57
58
59
60
61
62
63
