# vtk DataFile Version 2.0
Vessel Segment
ASCII
DATASET POLYDATA
POINTS 64 float
6.861399170319368 17.343743947856787 -6.447217315382877
6.17513957625894 16.743628709090743 -6.811600941716119
5.435248966450874 16.133249960205553 -7.277336657669718
4.751016325979527 15.610212307135484 -7.761689181388633
4.032438760646359 15.090464897138444 -8.275859862493698
3.309228966323696 14.595252225163572 -8.779683082776474
2.5650131721677822 14.098474132195681 -9.260418557905869
1.8087900258917182 13.587479821702903 -9.702924440625058
1.0518149341438578 13.041719321918041 -10.101454598513516
0.31364200036231665 12.44156448341988 -10.454190032336577
-0.3825557036471167 11.769445351940597 -10.759468866448193
-1.011638466175571 11.014197497494225 -11.011643230321615
-1.5505587032431196 10.174784856902145 -11.198212333112913
-1.983526576955733 9.262593603562857 -11.299865518125642
-2.3080341937665074 8.301089242344473 -11.29530732282965
-2.5366987944711097 7.320733669814893 -11.16710178230402
-2.6927298521893563 6.352545308657872 -10.905997170029154
-2.8034431601780203 5.424637065539564 -10.510366528902548
-2.8955255419905943 4.560727304486495 -9.985993335386974
-2.992011610228017 3.778012709908402 -9.347380433109507
-3.1077695545006114 3.085346102148609 -8.614872586652469
-3.2469661083355197 2.483469211358267 -7.8098742338790395
-3.403327443274344 1.9666612788552842 -6.950829112567463
-3.5616942482280187 1.5257953813643486 -6.0508068075881125
-3.695945228128982 1.1503801372001445 -5.117621211996633
-3.7624182947363147 0.8301894738006438 -4.157610516531669
-3.677568922725782 0.5568184987900147 -3.1810915946018876
-3.3040530576088223 0.33436506528079185 -2.267135940299123
-2.621310456939748 0.17554880390796115 -1.5318618954070504
-1.7762783974767475 0.07633336383572273 -0.9769551866709154
-0.888040917447434 0.019051881134237243 -0.49039065529192205
0.0 0.0 0.0
0.8612609858312856 0.024956736739033872 0.5358874383214021
1.6760265814771773 0.10350435030619314 1.1355326403804016
2.4324835517111953 0.24515707767036282 1.7968456777940485
3.1292756947318483 0.4573085590819076 2.5032848438066635
3.7736708232668756 0.744213435708745 3.2326906101964306
4.377004229887987 1.1076380180896181 3.9630864002184025
4.950416041950825 1.5463596799452775 4.67600946040971
5.501342469233406 2.0561190191058647 5.3587749361921535
6.031037373823309 2.630255625122205 6.006282687005566
6.533426878877968 3.261192472230186 6.622013291785792
6.992250688103905 3.9413477422838743 7.218926879262315
7.372455281069511 4.663816318493443 7.821210536665839
7.60012559256547 5.413811042359565 8.466740782355531
7.479071512900896 6.113005404614477 9.200466539896736
6.899122192488377 6.535264519763949 9.90565021876899
6.06411733456865 6.656132867449117 10.481810869487687
5.1700637305989305 6.610882540706391 10.95663672915617
4.259371110251491 6.492420692116816 11.389041784981117
3.348207062792017 6.351744837724776 11.812422710920737
2.443224289046312 6.229385924504498 12.254625617667209
1.5528206964442939 6.160788681501806 12.736323342901212
0.6887093642886505 6.1769377963642045 13.267980377470879
-0.13796588443335817 6.2964773204184725 13.84419462090439
-0.9251407809290929 6.518335017499072 14.444793183923979
-1.6830473011501323 6.825960734966092 15.045324236159418
-2.428829179049429 7.195316577214067 15.625250769995128
-3.1813018913509983 7.5992655064548345 16.17461248904162
-3.9501441180212034 8.009599887991822 16.68899866727299
-4.74900754013592 8.388608107672825 17.20231623820266
-5.542405255898233 8.701819081997261 17.714027542188877
-6.344918388148546 8.855892644929437 18.38665322254154
-6.969741805673908 8.792824353902711 19.146044316218365
LINES 1 65
64 0 1 2 3 4 5 6 7 8 9 10 11 12 13 14 15 16 17 18 19 20 21 22 23 24 25 26 27 28 29 30 31 32 33 34 35 36 37 38 39 40 41 42 43 44 45 46 47 48 49 50 51 52 53 54 55 56 57 58 59 60 61 62 63
POINT_DATA 64
SCALARS NodeIdx int
LOOKUP_TABLE default
0
1
2
3
4
5
6
7
8
9
10
11
12
13
14
15
16
17
18
19
20
21
22
23
24
25
26
27
28
29
30
31
32
33
34
35
36
37
38
39
40
41
42
43
44
45
46
47
48
49
50
51
52
53
54
55
56
57
58
59
60
61
62
63
