# vtk DataFile Version 2.0
Vessel Segment
ASCII
DATASET POLYDATA
POINTS 64 float
9.869587651043325 11.989190132185733 -5.717406967733721
8.864310581213498 11.91957891082916 -5.97662836686076
7.926100256214781 11.8201637802226 -6.236069256029987
6.9427233873589005 11.683112514209432 -6.501248019880687
5.975883924163256 11.509581172649812 -6.740790526819428
5.005330265797129 11.296209057937874 -6.949172587329453
4.037954063741865 11.041702512825065 -7.1179395164808055
3.0751686812952577 10.744763902776526 -7.237241847979947
2.119936704467052 10.406597528089188 -7.286659141539082
1.1782704413331102 10.032971747712455 -7.23371280711619
0.2628932114818923 9.639980476665949 -7.042719029481639
-0.6100991854543709 9.248497696202692 -6.705601155629847
-1.4340712988521913 8.860116970320734 -6.258801142774042
-2.2111900987537623 8.434426042557938 -5.765140125868739
-2.9227129484863226 7.868876495645429 -5.315283796237323
-3.4510759438908662 7.0423885283795995 -5.067115035101516
-3.6932490338097583 6.057031330352337 -5.072707461742994
-3.752309560066915 5.050983235972637 -5.185222281987376
-3.7115429243755806 4.044874433417859 -5.310006080457745
-3.59427674415727 3.0412841429562727 -5.401185166293837
-3.3871885147959215 2.048562435059276 -5.427976329124955
-3.0514688131868692 1.0936947422458736 -5.3631670424782305
-2.551472285462832 0.22989477646336604 -5.184142106529071
-1.8973591475492786 -0.48585697665006844 -4.887337617366479
-1.1457870980970368 -1.0388750884785505 -4.489742461730727
-0.3578865446059366 -1.4554385342007792 -4.005059380115337
0.4144501452152905 -1.7581620066033363 -3.421378521434181
1.0978261127379736 -1.9317418264373187 -2.6938967408166286
1.4528055585458872 -1.8408537022351246 -1.7518112072629177
1.1825489696859401 -1.3635301718162882 -0.902275594104823
0.6210158231941294 -0.7153052999150759 -0.36315311804608585
0.0 0.0 0.0
-0.6251558774593564 0.7533262247918742 0.2664231701821679
-1.2461224396524708 1.522883119848211 0.49376176915716985
-1.8812096092392698 2.2733941411811838 0.7438468565241982
-2.5649030633388423 2.9280504603474027 1.1077827271599388
-3.2865639242896414 3.351082194795607 1.6791030854700586
-3.9416643814341263 3.5017787980369137 2.4384086205796924
-4.458885288595038 3.4941923319575463 3.310788880099704
-4.8187361946298966 3.430181311972362 4.25694098340408
-5.01125466365667 3.3715940154567776 5.25116065566245
-5.034418023000554 3.357242729602009 6.265008294189633
-4.898374994443713 3.4104414209411456 7.26878266916823
-4.623782948951802 3.543912391550843 8.236167034016937
-4.235433536977025 3.763234812423347 9.14720643797725
-3.7583348532299565 4.068258095477576 9.988853776218312
-3.2159052394200573 4.453733682318002 10.754558686187117
-2.6298921175910204 4.909642041215482 11.445956192569156
-2.019472920615771 5.421985788830238 12.073798603567058
-1.3993965821619339 5.974990572857198 12.65611291620805
-0.7786106919214374 6.554555946384547 13.211190769644515
-0.16076295519614614 7.1504856890660555 13.752077689096398
0.4541875881991599 7.759030484955197 14.28209744802058
1.0671753994372262 8.383960108871719 14.795063171001816
1.6759973221489488 9.034672821142316 15.280123359243898
2.2720484560373397 9.721860106421978 15.729363475278506
2.8392956759634465 10.453786747723937 16.143912931875
3.355979924061024 11.233394763588231 16.5370422434211
3.7959281326808463 12.056717725447507 16.93439229618807
4.124766128663273 12.908442168378365 17.37692815805639
4.295424843706196 13.746398248126718 17.919856494881987
4.237126496319421 14.457543832966975 18.65125050696051
3.973741044640733 14.879223707582927 19.495692625955886
3.5538896446528927 14.978375723209634 20.44195080250009
LINES 1 65
64 0 1 2 3 4 5 6 7 8 9 10 11 12 13 14 15 16 17 18 19 20 21 22 23 24 25 26 27 28 29 30 31 32 33 34 35 36 37 38 39 40 41 42 43 44 45 46 47 48 49 50 51 52 53 54 55 56 57 58 59 60 61 62 63
POINT_DATA 64
SCALARS NodeIdx int
LOOKUP_TABLE default
0
1
2
3
4
5
6
7
8
9
10
11
12
13
14
15
16
17
18
19
20
21
22
23
24
25
26
27
28
29
30
31
32
33
34
35
36
37
38
39
40
41
42
43
44
45
46
47
48
49
50
51
52
53
54
55
56
57
58
59
60
61
62
63
