# vtk DataFile Version 2.0
Vessel Segment
ASCII
DATASET POLYDATA
POINTS 64 float
10.600334009273725 11.680818111460583 -9.84423095912897
9.614151824020908 11.673671161197788 -9.607388062001023
8.620705311444778 11.691520037086242 -9.39932518733067
7.626981982846138 11.73307115215024 -9.200194341231265
6.637827644794679 11.794722693874586 -8.982466741817621
5.6615776080487406 11.870654042810633 -8.716905230722361
4.706661465491165 11.954316977406444 -8.384347948757297
3.7778794051995783 12.040707193478525 -7.9852067066302075
2.8709408165916885 12.128175648709846 -7.5388455460730075
1.9749931411884556 12.216838575181802 -7.0710377475542945
1.0783637719478396 12.305930846624774 -6.60463080819837
0.17180103999437543 12.386411904149556 -6.1561503631209415
-0.7509071624998466 12.427899178399048 -5.736407911601474
-1.6886618478735214 12.33694790878203 -5.3596583212398174
-2.558827446594661 11.895415693299144 -5.082251458124888
-3.1986595366545965 11.118929567271884 -4.952211256273368
-3.7081770360446553 10.24358814489434 -4.891595381147904
-4.174289140025853 9.343322038339243 -4.850486820157505
-4.6069351156464196 8.426545482161007 -4.8088883325759575
-4.98719469246322 7.487556117544642 -4.752784184383939
-5.2776122646989085 6.5191815332686485 -4.667128242968988
-5.421938249803121 5.523732955867194 -4.534146186566454
-5.359490640206101 4.529828934379794 -4.3400704763091635
-5.07466964402156 3.5898438588600934 -4.085536277300125
-4.615032513646518 2.7381537182070144 -3.781135505807913
-4.041993227599059 1.9767927160898193 -3.4325191951800473
-3.3997801250566564 1.298023745191794 -3.0373299355997365
-2.7155263305894555 0.6988872557350224 -2.5876381245691245
-2.0061290467184842 0.189894735930389 -2.0707260374085927
-1.2843094079123265 -0.19241130554444835 -1.4688949606965618
-0.5735785166740023 -0.3449921930340786 -0.761212212787248
0.0 0.0 0.0
0.17739972491907277 0.8564382510090197 0.5151760272318693
0.07658309441660055 1.8223827329211604 0.80741871586853
-0.16805818061322975 2.780826657543606 1.033571823306052
-0.5145736849347627 3.699856021788814 1.2878553718773302
-0.9484422155344903 4.547115596323446 1.6390600387378078
-1.4531107589849173 5.278398901248536 2.1288550693051187
-1.9995150634947256 5.862753109803299 2.7529490979274045
-2.5587124613466727 6.310957005729542 3.471156196454639
-3.1136394106821093 6.660778664669608 4.245157070212848
-3.652800309553488 6.949256429687943 5.054788384585243
-4.161933972925226 7.202405436169376 5.89509389438357
-4.618293003274486 7.434781842254949 6.77098960216861
-4.988101831607296 7.651669742208689 7.690533392687287
-5.2258541191076535 7.851265776195994 8.656499423634846
-5.2836675830184285 8.029071649792094 9.653712195694677
-5.1331250957032 8.184420417762393 10.644997724985775
-4.78466158899742 8.325476415741146 11.587386679940648
-4.2759943442369295 8.46470964194658 12.454195041256401
-3.649694465291066 8.613074757646292 13.238495410902928
-2.9411036828124475 8.778184493993372 13.945640520392935
-2.1760392866863 8.965029950417014 14.585288996347302
-1.371725673898439 9.176909458293924 15.166321911093801
-0.5380650834690262 9.416814140523355 15.692541964907534
0.3194504801652142 9.68779654059075 16.162283810286123
1.196093552419946 9.991842473220895 16.572734048990245
2.085373842225048 10.329163225450564 16.925955711682743
2.978839635899724 10.697052955146168 17.235650956484623
3.867837823542033 11.090387275275 17.525929947682094
4.744562974990328 11.503059361674694 17.827072788839256
5.600267603793881 11.927408881429317 18.16865995007672
6.424974016531973 12.354717571630715 18.577976077931712
7.204502969825468 12.773876812710386 19.07350706506142
LINES 1 65
64 0 1 2 3 4 5 6 7 8 9 10 11 12 13 14 15 16 17 18 19 20 21 22 23 24 25 26 27 28 29 30 31 32 33 34 35 36 37 38 39 40 41 42 43 44 45 46 47 48 49 50 51 52 53 54 55 56 57 58 59 60 61 62 63
POINT_DATA 64
SCALARS NodeIdx int
LOOKUP_TABLE default
0
1
2
3
4
5
6
7
8
9
10
11
12
13
14
15
16
17
18
19
20
21
22
23
24
25
26
27
28
29
30
31
32
33
34
35
36
37
38
39
40
41
42
43
44
45
46
47
48
49
50
51
52
53
54
55
56
57
58
59
60
61
62
63
