# vtk DataFile Version 2.0
Vessel Segment
ASCII
DATASET POLYDATA
POINTS 64 float
9.60740733179413 17.632761323000143 -10.38961544735228
8.817581720694292 17.62443209514005 -9.976435149173
7.704736787328556 17.486819864037642 -9.56960517514151
6.800126323128007 17.204443057538494 -9.459967035242826
5.844248861456166 16.846573700274835 -9.386439234163825
4.913913420944795 16.433649650481566 -9.341935630312994
4.009585492213222 15.985575970999946 -9.272973404875126
3.118996478803089 15.52453441506053 -9.107853872314218
2.2639881818734384 15.079629100053513 -8.785641734387454
1.4845392921042737 14.694664193071748 -8.260866079139475
0.8127229034444787 14.397449233339591 -7.558722608067039
0.24801980602894347 14.18538650626635 -6.741481135108381
-0.2461135658208203 14.026556444283534 -5.8695655256877
-0.7105169937207633 13.881154953582136 -4.979234938944471
-1.1798999718687129 13.704289007949967 -4.096980929061518
-1.6805860281320593 13.439789767041107 -3.2545254977491
-2.2230002379152958 13.019899914946137 -2.5026651043242834
-2.7711722054487478 12.398988369161136 -1.915784423975451
-3.263931494137721 11.59620615057536 -1.5303173821916074
-3.64773842029931 10.678203419876754 -1.3243713753621755
-3.910710365263794 9.701277332326391 -1.2350012898481815
-4.0550211426610305 8.696714564442313 -1.210804948798207
-4.084929688906633 7.682064888871453 -1.2153108270804192
-4.00311077175898 6.670333787232481 -1.222565090793028
-3.8118916353703245 5.673456642161471 -1.2135018854718533
-3.5146620120742793 4.703715392515055 -1.1740520109306867
-3.1166977523439487 3.773255932912158 -1.0944435023172647
-2.6261427191808315 2.893240972834387 -0.9693417293607861
-2.055206750270729 2.072706644025698 -0.7980664404562687
-1.4150416136461579 1.3134261664174127 -0.5820681796977037
-0.7220662358113307 0.6184883692619072 -0.3205030931651029
0.0 0.0 0.0
0.7825119257038772 -0.5531959523437271 0.4304533243946119
1.4318851529251326 -0.8500624863132874 1.1197906367583883
1.6017612427677115 -0.636393418991903 2.112996859384523
1.3177430312703118 -0.13547672180486423 2.9573474372866024
0.8242004188156864 0.4654335988163891 3.6184616883164002
0.2910994593480602 1.102921978524492 4.197687675510165
-0.2720669775485181 1.7908966883606035 4.686918844365804
-0.8324300324322231 2.5361232671628176 5.089719381375754
-1.3564124325703868 3.3461351864250077 5.404696406848106
-1.8129360784748567 4.224306671512257 5.630962047967428
-2.1716492411839052 5.162428791114559 5.779491458050632
-2.4159208132198584 6.142913663469734 5.87633502344417
-2.54446598199569 7.146733817291736 5.956385438343556
-2.5660132630839287 8.156249185038128 6.059332203478731
-2.492033731607328 9.1551255952496 6.225158844108879
-2.3310303794041154 10.121168313966901 6.494405814415678
-2.090492854493389 11.018122756313524 6.905942449093296
-1.782319189769147 11.794412945816733 7.486047358457051
-1.4309471701709813 12.395082223860085 8.22595318084114
-1.0652609707334735 12.805181292139423 9.081021087947963
-0.7074601588122625 13.050500691087235 9.999285970342337
-0.3667514231397423 13.182200214959575 10.9460993897008
-0.04594796355554778 13.246509259519382 11.906690034035924
0.2535980506706088 13.281781478392402 12.875328443396757
0.5286066744504037 13.320056455140104 13.851201800746699
0.7719903752289689 13.389106929603804 14.834887241852556
0.9752058229019215 13.508279199874394 15.81877830597382
1.1180076817493323 13.709443128650085 16.80792289975694
1.182963298707882 14.008355697218754 17.78563160283043
1.176685018055589 14.360556713799644 18.6650851275662
0.9832044470315804 14.983681171548673 19.67264701766806
0.7732326069270185 15.50025142244917 20.363745201458258
LINES 1 65
64 0 1 2 3 4 5 6 7 8 9 10 11 12 13 14 15 16 17 18 19 20 21 22 23 24 25 26 27 28 29 30 31 32 33 34 35 36 37 38 39 40 41 42 43 44 45 46 47 48 49 50 51 52 53 54 55 56 57 58 59 60 61 62 63
POINT_DATA 64
SCALARS NodeIdx int
LOOKUP_TABLE default
0
1
2
3
4
5
6
7
8
9
10
11
12
13
14
15
16
17
18
19
20
21
22
23
24
25
26
27
28
29
30
31
32
33
34
35
36
37
38
39
40
41
42
43
44
45
46
47
48
49
50
51
52
53
54
55
56
57
58
59
60
61
62
63
