# vtk DataFile Version 2.0
Vessel Segment
ASCII
DATASET POLYDATA
POINTS 64 float
10.05799622622945 9.733734374389622 -8.914806669159587
9.105235363310928 10.018049846928712 -9.213991219794151
8.15451772279354 10.185665541963058 -9.390442095541873
7.137464545711318 10.268989054421555 -9.502599876692242
6.128227713496496 10.263468734031134 -9.565644326891666
5.1165337379615705 10.195135192997094 -9.618522973713356
4.110613592887868 10.075361694406261 -9.671853436661234
3.1106072610352986 9.9087376970408 -9.712268264486173
2.1196370665342275 9.69182131997936 -9.698683098824544
1.153928076913313 9.417688605194645 -9.553138453293803
0.27614135857525035 9.09728517433011 -9.161874257070595
-0.4309872245863733 8.786573500602058 -8.50454470125262
-0.9979046063519955 8.531277836023344 -7.702825428086277
-1.5234927400477738 8.324982451845122 -6.859852087165553
-2.0873244238573174 8.131174913027545 -6.0389048107206
-2.734394928526885 7.883960890977177 -5.2981721808439755
-3.4620747687944307 7.463239102077964 -4.731602188155382
-4.114597029329472 6.7384994847991315 -4.461225271888467
-4.457243259752064 5.785568523239569 -4.410444738890696
-4.462297713268062 4.774855827363639 -4.336157992885731
-4.204554693159891 3.826624293632779 -4.088156291147181
-3.775996279958837 3.0173365220178514 -3.6526397940816526
-3.243693585927559 2.3437444296877943 -3.11209978870774
-2.623322602219232 1.7505191886551095 -2.5712625395068853
-1.9063852848692064 1.1790211928299128 -2.137462372265679
-1.1130566955868058 0.5981832243287526 -1.8904847241471172
-0.29185843926658034 0.0022100888006982016 -1.81054866536099
0.506172994091947 -0.594858327889875 -1.819722797692094
1.3358456538936008 -1.2866702195938746 -1.637632950554338
1.315966685668346 -1.3026274110905285 -0.8593353811194897
0.6731329789485807 -0.700621282642638 -0.27663463414650785
0.0 0.0 0.0
-0.676023946100241 0.7508452200854099 0.08941242211591584
-1.335750747516729 1.5211970570010893 0.0608609389716467
-1.9833145532494334 2.3025736745646292 0.036730040494043534
-2.611126214549707 3.075423065204856 0.2246266078375192
-3.141794078508798 3.743094380419072 0.7689215681523468
-3.5244728950063196 4.233670563975759 1.570325997163559
-3.789149387451026 4.567684839021042 2.4908110669060313
-3.9692230522211465 4.7689193608702904 3.4685758782376763
-4.083647899396493 4.842795380556055 4.473880084475006
-4.14539641191182 4.789974253742399 5.485044647487061
-4.16563254581709 4.62929851686132 6.4865194211016854
-4.155278238868002 4.408851596626091 7.476870012586163
-4.118804146044636 4.183758522416294 8.465515672283402
-4.048997081254047 3.9955211864323505 9.460021660332806
-3.9250533576271525 3.8701309542122524 10.459128871702873
-3.7157151141087748 3.8245479473796147 11.450675778334558
-3.3926332946271596 3.8698754353991296 12.4111609528154
-2.9490894529684786 4.011886389317911 13.312210373087144
-2.405615223870911 4.253632955218402 14.134001446858953
-1.7983141007417025 4.603105673101123 14.867561886577528
-1.1683354557772982 5.074618652806155 15.507677082887508
-0.5548747764614123 5.672613028670804 16.050788294602743
0.021099115525015626 6.372037213468065 16.507177348626644
0.5699491282020931 7.1264767966143525 16.90578805629092
1.1218605752505222 7.892737338271559 17.276911272631715
1.7048857035299405 8.641328461897102 17.636222048455505
2.3293740721359586 9.360348584156165 17.985769606474914
2.9833905218664105 10.055688663719117 18.33077830060753
3.63747210010467 10.740193395098988 18.690780136283916
4.231922160277805 11.4346282490277 19.14646550261332
4.650971659312214 12.092303483943667 19.753317209410355
4.666509118467006 12.61799472506971 20.645729853325257
LINES 1 65
64 0 1 2 3 4 5 6 7 8 9 10 11 12 13 14 15 16 17 18 19 20 21 22 23 24 25 26 27 28 29 30 31 32 33 34 35 36 37 38 39 40 41 42 43 44 45 46 47 48 49 50 51 52 53 54 55 56 57 58 59 60 61 62 63
POINT_DATA 64
SCALARS NodeIdx int
LOOKUP_TABLE default
0
1
2
3
4
5
6
7
8
9
10
11
12
13
14
15
16
17
18
19
20
21
22
23
24
25
26
27
28
29
30
31
32
33
34
35
36
37
38
39
40
41
42
43
44
45
46
47
48
49
50
51
52
53
54
55
56
57
58
59
60
61
62
63
