# vtk DataFile Version 2.0
Vessel Segment
ASCII
DATASET POLYDATA
POINTS 64 float
10.523235064880389 11.346020061899774 -7.959939984598814
9.592712605532151 10.884090447338785 -7.831116789463282
8.659749364213063 10.628341744111511 -7.723622039682713
7.648284867237746 10.48897440881757 -7.638580461517329
6.636414172159594 10.46266457514351 -7.596699143667862
5.622457341179233 10.497310470710302 -7.60395009693069
4.610774258446471 10.547517817739674 -7.66237375945999
3.601756991151666 10.567705422631851 -7.76604887380218
2.5971242955309735 10.515341735245455 -7.896980836319912
1.6033372791661382 10.35629553066743 -8.023809693203695
0.633102832245949 10.071126585077582 -8.101822651909128
-0.2934482801389428 9.65957198096051 -8.07802223064188
-1.149222187623468 9.144502060655894 -7.9034122868927446
-1.9079515421971696 8.570419612441867 -7.552810757299725
-2.5612758843152137 7.987372912419427 -7.041225707274974
-3.1240685762286016 7.426407028723917 -6.410662226966923
-3.620931740316771 6.891493722325188 -5.706254903424394
-4.072946781117351 6.361958378802023 -4.968219556108039
-4.487096656608697 5.7973174979954 -4.234075964631548
-4.844639992052194 5.141299762053377 -3.548042600593216
-5.083335476675887 4.344693837498746 -2.9686080754791546
-5.107603878757789 3.422775066992995 -2.5494773832901276
-4.8598902834999995 2.4718467121303918 -2.30272532365056
-4.376995251694067 1.589226947074998 -2.1778290455472313
-3.7307173758583856 0.8105838829290413 -2.1092604284074246
-2.976136797673771 0.13525142281449656 -2.050670083612406
-2.1479036697972664 -0.44468938758999615 -1.9704231478265177
-1.2656600140392582 -0.9316196862846338 -1.837910758790808
-0.36074523498226574 -1.3009279088141315 -1.6110341677913422
0.5402521531085864 -1.4134420732103878 -1.1215104048586013
0.5507131370637007 -0.7475703689613145 -0.3978518699792883
0.0 0.0 0.0
-0.6268559348224835 0.730016821879277 0.3233280212867489
-1.2771255842921547 1.4390607020580666 0.6452379248477653
-1.921233984687476 2.1162867647347956 1.039734687760891
-2.533826366069401 2.717475831927584 1.5796471875412814
-3.072220976785066 3.161140191080999 2.3143228093866552
-3.4937198846923905 3.385525371660177 3.2081711966290043
-3.7929996560494863 3.415994439700012 4.176573889025653
-3.9856871819641158 3.3183310916789104 5.167655321557674
-4.0797182577730995 3.1494950332913745 6.16354550326591
-4.073284869484498 2.9555058205943245 7.159232846198112
-3.9616258262988118 2.7800692424937457 8.152091155405712
-3.744981167970659 2.6689733358153878 9.136819543301177
-3.4354337909867816 2.6691697946668267 10.102711623680902
-3.0583053706898284 2.822433375366413 11.03149574491862
-2.6488898206476894 3.1512494841158234 11.89900224726508
-2.2389334933496627 3.6494407000507736 12.681347370816153
-1.8454091701288244 4.288120767808715 13.363903139428489
-1.4672949908183115 5.028587680865999 13.945053853417493
-1.0908802401987423 5.833567632784116 14.434480706704798
-0.69825369044571 6.672257495347906 14.848812576328397
-0.27653586590711177 7.522521536622036 15.207445354352112
0.17514946025521735 8.37155067399425 15.530582811521931
0.6444335310476461 9.21687368883884 15.8382670212227
1.1110518698799006 10.062553903952757 16.148984448449152
1.5539037716729243 10.913543127133075 16.479182437476194
1.958110999235921 11.769665090876373 16.843892288063607
2.320044190330697 12.622192850200543 17.258064306190555
2.6475431190160448 13.453385182405475 17.738821226895347
2.95758148583648 14.233431114365096 18.306232606303105
3.279447056249839 14.916623629503029 18.99694752591466
3.6099987538298755 15.422574948141493 19.761344280735273
4.009622773581204 15.703022344865449 20.68669975460491
LINES 1 65
64 0 1 2 3 4 5 6 7 8 9 10 11 12 13 14 15 16 17 18 19 20 21 22 23 24 25 26 27 28 29 30 31 32 33 34 35 36 37 38 39 40 41 42 43 44 45 46 47 48 49 50 51 52 53 54 55 56 57 58 59 60 61 62 63
POINT_DATA 64
SCALARS NodeIdx int
LOOKUP_TABLE default
0
1
2
3
4
5
6
7
8
9
10
11
12
13
14
15
16
17
18
19
20
21
22
23
24
25
26
27
28
29
30
31
32
33
34
35
36
37
38
39
40
41
42
43
44
45
46
47
48
49
50
51
52
53
54
55
56
57
58
59
60
61
62
63
