# vtk DataFile Version 2.0
Vessel Segment
ASCII
DATASET POLYDATA
POINTS 64 float
8.874951110683764 14.933868276567445 -14.135740960493136
8.31008998198996 15.417483389786902 -13.652845408927567
7.4733376280677275 16.022723318447486 -13.035343267682116
6.712637786506211 16.389550343048075 -12.614008716075585
5.8337556413499625 16.688561949911705 -12.17954312469544
4.9144183914107895 16.842677758861022 -11.764444900597173
3.99258228853885 16.837384090428426 -11.347244646970523
3.092921382863592 16.69120274264248 -10.897588554624994
2.2436667585810666 16.428063888956245 -10.40781904851043
1.4493728814044766 16.08509891959955 -9.877413239136171
0.7043953654249134 15.692173782366126 -9.311234644839269
-2.2468408280018615e-06 15.26880922093407 -8.716104332752787
-0.6716404040247103 14.82507944910545 -8.098415784968124
-1.3146207500826992 14.36316072915959 -7.463815117791869
-1.928557534173177 13.878959103970372 -6.817105289092625
-2.5070012432737707 13.362735418850237 -6.16242700074441
-3.035587188396435 12.799733253686435 -5.503935646776439
-3.4894084561256937 12.172114639579966 -4.847569001030955
-3.833776966507735 11.46601160436177 -4.204433760011515
-4.031365419581229 10.679783377779785 -3.5920915150569295
-4.057515026745912 9.832287283397974 -3.033055624166284
-3.918847675064789 8.953065079205661 -2.543909290286991
-3.6457430830661197 8.066539251956314 -2.1309237215416434
-3.279546073893973 7.183342300783156 -1.7902740296345985
-2.85555148986655 6.303832174596421 -1.5140110363575556
-2.401650694312141 5.42383032079668 -1.2917427639761114
-1.9391628192705774 4.538957684800671 -1.1111443872728477
-1.4840949809245343 3.6456837756035103 -0.9565968718937623
-1.0485289004828577 2.7400841854448093 -0.8079990334844411
-0.6455443087857236 1.8269353645167556 -0.6361196554402943
-0.288932788849006 0.9097486326072621 -0.39514254663668125
0.0 0.0 0.0
0.11589729227486285 -0.6753589054071222 0.7338749734060643
0.0006717276337925536 -0.8892659925823008 1.7333953912503293
-0.2920373383714935 -0.6242321268986304 2.671886809104415
-0.6728852571555131 -0.12343448191491802 3.47732134546471
-1.1064776172280921 0.5011631386744797 4.146096211783339
-1.5820260715976011 1.2246496714218893 4.678505251256925
-2.0796496688951116 2.020532694712778 5.06653852245407
-2.5754543850753553 2.873641186660056 5.305596367230871
-3.0397226751364173 3.771730886413552 5.4005012659598535
-3.4386642244187016 4.704905775747964 5.368961395109895
-3.7367147386693897 5.667423946929937 5.2435021743819314
-3.896149049822515 6.654771144017166 5.0669329389139754
-3.871411603548512 7.656391803669095 4.895495691368517
-3.616383722246448 8.637620112715304 4.8061662401850676
-3.1109920567418845 9.517272147539632 4.896925224157494
-2.431433004424644 10.199230881498208 5.224385282857442
-1.6984239497379097 10.641170468083729 5.7777514823608564
-1.0170274096028151 10.875710918263106 6.494590196315761
-0.43265150446899325 10.952873211598792 7.322142009930552
0.036007818539802595 10.907828929535615 8.222275212525695
0.38180396934635863 10.75865012005653 9.165400887351831
0.6025177877196939 10.510894307021657 10.125185671038246
0.6983876136638925 10.160175433574535 11.073506838354152
0.6762174699304533 9.695393330003418 11.976328562060925
0.5550603158415861 9.102904206285157 12.792587629012559
0.371901744351461 8.37360657631551 13.477010768088537
0.17840197212534373 7.524698950902787 13.995465297678615
0.038879147154352534 6.571222259070376 14.331134262392698
5.102965823788885e-07 5.560305449518547 14.49649159261559
0.05314041002690352 4.616189632852741 14.53692078920535
0.3312978094231377 3.452515573108287 14.422031314188995
0.6078042692182286 2.6199802947127457 14.289211772517938
LINES 1 65
64 0 1 2 3 4 5 6 7 8 9 10 11 12 13 14 15 16 17 18 19 20 21 22 23 24 25 26 27 28 29 30 31 32 33 34 35 36 37 38 39 40 41 42 43 44 45 46 47 48 49 50 51 52 53 54 55 56 57 58 59 60 61 62 63
POINT_DATA 64
SCALARS NodeIdx int
LOOKUP_TABLE default
0
1
2
3
4
5
6
7
8
9
10
11
12
13
14
15
16
17
18
19
20
21
22
23
24
25
26
27
28
29
30
31
32
33
34
35
36
37
38
39
40
41
42
43
44
45
46
47
48
49
50
51
52
53
54
55
56
57
58
59
60
61
62
63
