# vtk DataFile Version 2.0
Vessel Segment
ASCII
DATASET POLYDATA
POINTS 64 float
9.123815170228076 13.273433015238233 -12.7093813139312
8.252139313214593 13.432726970206092 -12.753450573155233
7.063678414429528 13.612562239702639 -12.712914630681395
6.148688963211947 13.68803323747559 -12.486646170574756
5.208264598004715 13.728744380401267 -12.07924121029175
4.378798170702097 13.732923657124159 -11.486577070370537
3.6743526940195848 13.729895270896677 -10.758442658770443
3.054786162501097 13.7492397354471 -9.953769233200347
2.484593149498347 13.802882589917319 -9.11624571743808
1.9255030569369478 13.88885610592089 -8.274026922843474
1.350079046670789 13.991410931791743 -7.444539658121217
0.7397079948436205 14.082896297512265 -6.639151159603162
0.081928152976714 14.123658347025037 -5.867359865748471
-0.6270638661659091 14.058542867785125 -5.142201699071017
-1.3667460472594635 13.823061049716276 -4.48773963464509
-2.090362177187589 13.377971833449307 -3.928992914264864
-2.7384919178350717 12.741208133569582 -3.4750538844119045
-3.2848103751517836 11.96886478035392 -3.10435721570651
-3.727176919981676 11.112025565836818 -2.787016812012686
-4.074030505354629 10.203171839757925 -2.4974007001336
-4.3294678053938975 9.26116290608423 -2.2190046435772754
-4.49119866080977 8.298028932398788 -1.9426717382061316
-4.5496295204649595 7.323409176687005 -1.6651474452931665
-4.489935338217744 6.348125272261042 -1.3896571756149614
-4.296065118866622 5.387081998931664 -1.125466329673404
-3.961620195149233 4.459108843341644 -0.8851647996259251
-3.4945888470641604 3.581297255298517 -0.6793692751514441
-2.9178513308208966 2.7630708069515966 -0.5118318215802056
-2.258978257943629 2.0029250199577 -0.3760687845740282
-1.5427412477083284 1.2937192484922333 -0.25953605549170233
-0.7865335373718038 0.627407726151219 -0.14311837928951973
0.0 0.0 0.0
0.8013316770022912 -0.5825713786250527 0.19548361774106507
1.6226729266045747 -1.0901456129921177 0.5380824736604757
2.388124359861041 -1.3992043580464146 1.1596112261158675
2.769946722155295 -1.235345884665873 2.057620859659454
2.7790817794792466 -0.7342168750011536 2.9749222752199174
2.592524889274866 -0.12013998871810422 3.754640270210105
2.3331468949942957 0.5455592101918915 4.475043522472046
2.0358906007801596 1.2434245860389486 5.150066954401999
1.718468836087778 1.9657208437633287 5.787684639877214
1.3945439643866202 2.7084686570138 6.398420520860526
1.0703567274664563 3.4685503880472326 6.987192874040661
0.7495009317738682 4.241955925007173 7.560175718789131
0.43353982930376483 5.023273307260202 8.125111570872441
0.12263029581778853 5.80571114344531 8.691276189063407
-0.18330641179901588 6.581242366948342 9.269611695007487
-0.4831999442054191 7.341646595010423 9.870703371023298
-0.7738785702986894 8.07924425470259 10.503968860921013
-1.049117838792025 8.788185649426419 11.17576633504279
-1.299534375479129 9.465365691163697 11.888809266034345
-1.5143636070020734 10.111327734518433 12.641319161332282
-1.6837512630011828 10.730099818580019 13.427495189250221
-1.8023892315882297 11.328381363000165 14.238424948025658
-1.8716140698613837 11.913168433101587 15.064859394803827
-1.8991548526483588 12.488793794743781 15.899861582624979
-1.8964481754632143 13.0549983842125 16.741763732586097
-1.8743672077399256 13.604948398213011 17.595432609600127
-1.8414008408585356 14.125591539910275 18.46154471135493
-1.800247896526839 14.596567906037214 19.364935289909262
-1.75219825186573 14.992852243826304 20.308559478089624
-1.7031574441265458 15.290162028251688 21.204577715419656
-1.6236712980074275 15.442919839992417 22.392914923026044
-1.558681252241125 15.467649373773842 23.27817972824431
LINES 1 65
64 0 1 2 3 4 5 6 7 8 9 10 11 12 13 14 15 16 17 18 19 20 21 22 23 24 25 26 27 28 29 30 31 32 33 34 35 36 37 38 39 40 41 42 43 44 45 46 47 48 49 50 51 52 53 54 55 56 57 58 59 60 61 62 63
POINT_DATA 64
SCALARS NodeIdx int
LOOKUP_TABLE default
0
1
2
3
4
5
6
7
8
9
10
11
12
13
14
15
16
17
18
19
20
21
22
23
24
25
26
27
28
29
30
31
32
33
34
35
36
37
38
39
40
41
42
43
44
45
46
47
48
49
50
51
52
53
54
55
56
57
58
59
60
61
62
63
