# vtk DataFile Version 2.0
Vessel Segment
ASCII
DATASET POLYDATA
POINTS 64 float
8.633701820755975 14.592661475552768 -7.501094162325974
7.687098771395336 14.261779618215606 -7.217943961631276
6.761950088961053 13.98703253105073 -7.008035773362529
5.802460749519039 13.708362850914506 -6.837599939066743
4.847748898749812 13.394669961405139 -6.694997036843451
3.9168952593149844 13.016504895558171 -6.554608473882988
3.0142563925112666 12.57973864789257 -6.400466239669877
2.1252332242566534 12.118826459739985 -6.237357888563893
1.2357440908380837 11.658334097383204 -6.07553435946448
0.3499553376983084 11.19022191413502 -5.915369067387279
-0.5033865871771962 10.669785331234008 -5.742506970292501
-1.256700382149515 10.027463285713372 -5.525580143968046
-1.8023578335726036 9.229489346503527 -5.225355513778073
-2.113016519999623 8.348525366746026 -4.83170038324736
-2.309145450012811 7.466124695334615 -4.371105015882233
-2.5030404243082054 6.59176110009371 -3.8943831124125667
-2.718661091348531 5.684304886215353 -3.496227510128612
-2.882900952378345 4.702811620722837 -3.310610508904575
-2.8928331794102875 3.6936457582561206 -3.391252091829357
-2.7147690864620926 2.727888952404359 -3.6418542655955193
-2.3330901168676443 1.8374272621528605 -3.9385749121882787
-1.674145578791702 1.1016737625862592 -4.150458049078271
-0.7413857893294022 0.7208860154250092 -4.135116448365639
0.2509382139494038 0.6773282493474488 -3.933043516634686
1.2232824623807654 0.7482740787675287 -3.6527160962247676
2.172730450680655 0.7915811806706633 -3.298880986824267
3.0149890625289726 0.6996180842991059 -2.7410056973736556
3.208084405741611 0.49037870061172817 -1.798149699240614
2.70334412267931 0.39172640895912275 -0.9280948482151604
1.933747369786455 0.3331177983556917 -0.2732186200761124
0.9911305917062543 0.19655903306439312 0.06143136807365369
0.0 0.0 0.0
-0.9868961078849423 -0.033279528278377046 -0.2258746707722756
-1.9492330213342062 0.24397484102134206 -0.36290761347324807
-2.7782934438690776 0.8123286633098622 -0.25607854507993355
-3.3794326793733385 1.5322975812936839 0.12189592665976073
-3.658987709146599 2.2670968905548143 0.755116176379115
-3.4310944724263366 2.8145646076818487 1.5627315197352398
-2.71992486226478 2.9570708297456836 2.263450957567099
-1.8754547837284214 2.834921744039161 2.81132793665064
-1.0638905042213898 2.6325581598569467 3.384853379243631
-0.40337746056878665 2.481153461515267 4.13647119294433
0.0037611109242855307 2.462439323435251 5.063069436538526
0.19570232051002606 2.556914604783652 6.053995820025595
0.27064233852677 2.721446517089215 7.052183929363121
0.30318469110448243 2.9470400388690745 8.040689562814697
0.3476486584877022 3.2592071625011547 9.004743096237416
0.4410294437752675 3.7105148495750737 9.907624418019186
0.5734890581984162 4.35042567464057 10.681659979445968
0.6776386567706889 5.165019687171597 11.275054244753655
0.7071511899009125 6.083142549663931 11.704304015554683
0.6746934381930545 7.046716774686267 12.019543555367283
0.616186315291572 8.030467864311102 12.260337116778468
0.564518377562387 9.025670658616887 12.4508486108846
0.5388676188903883 10.026355279418034 12.616133826335286
0.5442108154379581 11.02505227334612 12.79479363673975
0.5831149859221961 12.010668435622476 13.031594885571382
0.6606869340537403 12.965828119110395 13.36375722565443
0.7808378880457754 13.86369189930403 13.819423177486396
0.9402515349205348 14.657827515510979 14.428477069091691
1.1210247063074017 15.24837921228889 15.230203891297123
1.2731338923510118 15.430896761368361 16.20846990430062
1.3315508876663364 15.106695938901824 17.13717890238786
1.2964364748738475 14.417641935726666 17.9154010589235
LINES 1 65
64 0 1 2 3 4 5 6 7 8 9 10 11 12 13 14 15 16 17 18 19 20 21 22 23 24 25 26 27 28 29 30 31 32 33 34 35 36 37 38 39 40 41 42 43 44 45 46 47 48 49 50 51 52 53 54 55 56 57 58 59 60 61 62 63
POINT_DATA 64
SCALARS NodeIdx int
LOOKUP_TABLE default
0
1
2
3
4
5
6
7
8
9
10
11
12
13
14
15
16
17
18
19
20
21
22
23
24
25
26
27
28
29
30
31
32
33
34
35
36
37
38
39
40
41
42
43
44
45
46
47
48
49
50
51
52
53
54
55
56
57
58
59
60
61
62
63
