# vtk DataFile Version 2.0
Vessel Segment
ASCII
DATASET POLYDATA
POINTS 64 float
9.04417049473779 14.152306872088687 -9.898191085258837
8.01795125187163 13.94235250728708 -9.873260493228894
7.102132481803269 13.622623670929348 -9.981904401971747
6.1888894237469465 13.211481214716052 -10.171765407631657
5.324039232028031 12.738752840217861 -10.41337687801783
4.494047837227906 12.217834025087871 -10.675545621394141
3.6870080298803 11.656067815365663 -10.925486482480663
2.891446653487435 11.057484830394564 -11.120284013653393
2.099276735678876 10.429441929290618 -11.201814951126165
1.3156100987074397 9.792197521634437 -11.113427736214955
0.5560270795285216 9.176966238664482 -10.843654717493003
-0.1731534343029855 8.601135809661944 -10.436705378703627
-0.8816017785159894 8.060460592278933 -9.951843596586983
-1.5821340950964526 7.53921686182997 -9.435093475517846
-2.2814835370168733 7.015348871083904 -8.919521128873178
-2.9726063231398925 6.455225177715591 -8.4318216397205
-3.6129038362446586 5.793511097609755 -8.007226872240132
-3.9793693216271575 4.891373517602831 -7.74575087837928
-3.698466196491545 3.924356357177664 -7.715077304806441
-3.056681737372246 3.1408152765012254 -7.709275572572735
-2.2930158118512765 2.4783852999361584 -7.6271937061268185
-1.482455433961758 1.8966635128938656 -7.444357136305544
-0.663061108380493 1.3773710572834046 -7.148247374797077
0.1330392463942603 0.9128576353627329 -6.725166842468646
0.8657167904034138 0.5018527689748908 -6.15732514843592
1.4715515091014955 0.1514133901828414 -5.424406457366652
1.8502851751506 -0.11510708978986853 -4.5240847338049734
1.8974260702686385 -0.2631818128902615 -3.524481238092223
1.6255246332952766 -0.2882809211621437 -2.548871849126603
1.1539556669322766 -0.22758442876501095 -1.6531376046364334
0.5885424935722963 -0.12167733229672026 -0.817441886982945
0.0 0.0 0.0
-0.5520080381736563 0.11470569415233008 0.8434305927634832
-1.0040431214879435 0.20271064621256532 1.7469531083472871
-1.3010059835412813 0.2511390136830966 2.7152957499064763
-1.4335874110479554 0.26137005703448896 3.72064006835956
-1.4426949943695453 0.24759324783908307 4.734978741969418
-1.382289364760571 0.22656579961459322 5.747556303801964
-1.2927588604292475 0.21320185126944804 6.758093698143207
-1.1967441527199365 0.221914066673504 7.768041169624031
-1.100242983656592 0.2701769404018433 8.776926762687367
-0.9944655942172023 0.38034190708164994 9.779847882808712
-0.8601388306476495 0.5791829401665485 10.76540487431434
-0.6788512824582642 0.8891861227040605 11.713955400280017
-0.44595281284886173 1.319394136895755 12.602368314634225
-0.17610751430331875 1.8626836219817458 13.415251903765117
0.10312430555530018 2.5054948576191722 14.148522699040747
0.36083905949864375 3.234764371049874 14.804776237604262
0.5673608798190665 4.038188487872852 15.388532418402882
0.6995159467593773 4.899894048638309 15.907125792152101
0.7473084245559207 5.798754468333573 16.374856059029774
0.7180308154007178 6.711049039249683 16.817703108737234
0.6331126092272282 7.614235335473008 17.272087976556502
0.5212990617068342 8.485069749128154 17.780225360690075
0.41247408316152556 9.295934017378132 18.37977933697708
0.32905141987450925 10.017894176642395 19.087144504659996
0.27742663694424957 10.633875514652635 19.891244812525493
0.24539406717970721 11.14813069073072 20.765030724786985
0.20600736066249142 11.580569763997191 21.68189334832527
0.12458138934389278 11.95212784652017 22.622219834215578
-0.03709066238844817 12.273204708786507 23.571086299759326
-0.32461301513615 12.542010656802898 24.510672288751383
-0.7469174749411465 12.740829793059604 25.368986288097453
-1.4225002295671287 12.85483653152119 26.160691759357235
LINES 1 65
64 0 1 2 3 4 5 6 7 8 9 10 11 12 13 14 15 16 17 18 19 20 21 22 23 24 25 26 27 28 29 30 31 32 33 34 35 36 37 38 39 40 41 42 43 44 45 46 47 48 49 50 51 52 53 54 55 56 57 58 59 60 61 62 63
POINT_DATA 64
SCALARS NodeIdx int
LOOKUP_TABLE default
0
1
2
3
4
5
6
7
8
9
10
11
12
13
14
15
16
17
18
19
20
21
22
23
24
25
26
27
28
29
30
31
32
33
34
35
36
37
38
39
40
41
42
43
44
45
46
47
48
49
50
51
52
53
54
55
56
57
58
59
60
61
62
63
