# vtk DataFile Version 2.0
Vessel Segment
ASCII
DATASET POLYDATA
POINTS 64 float
9.498613430332307 7.502103037869514 -5.372557495873817
8.786446140243195 8.099987755329666 -5.638931166042945
7.9507423198531715 8.708008582870766 -5.981949288012531
7.161375199657722 9.168464797339299 -6.32853485324826
6.300088534266001 9.58525669766102 -6.706082703225609
5.419913633293316 9.905987284158197 -7.0847485824552665
4.505562842186118 10.14127617428128 -7.459642621939492
3.5670539331583577 10.280462040827935 -7.818869008561811
2.609705738194801 10.319251874523317 -8.15316773522473
1.6424123186006552 10.25299110325184 -8.452748001088043
0.6753741743917542 10.078099217490985 -8.705853106112755
-0.2794704214578019 9.791758506338027 -8.896285388475563
-1.2070954599366719 9.393065482643603 -8.999634084478593
-2.0876033711101103 8.888443050200111 -8.982674576653322
-2.897103622428338 8.300789506119859 -8.810518353798374
-3.615097466119437 7.672855542992932 -8.463088228337412
-4.23529889258155 7.054442545921414 -7.9501242203439535
-4.767875991570133 6.4790142574382426 -7.3057575111397846
-5.228838725293747 5.954293796341009 -6.569592794010973
-5.6286775319067655 5.468172879312966 -5.773667572300736
-5.965556204758975 4.9974818597553385 -4.940221644133543
-6.221720400169132 4.513090979008673 -4.086141968434016
-6.358101439163364 3.983735990830834 -3.2308107484898385
-6.311205912541655 3.3859398532795657 -2.411747124156051
-6.015434111970194 2.728660564917923 -1.695833584680266
-5.469383335772571 2.0747293471375547 -1.1436219734288244
-4.736462255340068 1.4897808389881857 -0.7541623252214362
-3.8830723509449103 1.0074087178091247 -0.4908158214684056
-2.956473881941062 0.6332926256226948 -0.3135723271755886
-1.9881548707999512 0.3563259176056855 -0.18946191286018216
-0.9985567675292161 0.15451811260314366 -0.09193659784533258
0.0 0.0 0.0
1.000103155166872 -0.1371936107254026 0.1023610334836727
1.996287866025068 -0.2834907540295418 0.22729824017647055
2.983541787273202 -0.4574400468317103 0.3850645203427903
3.9550217162975745 -0.6676296368912591 0.5858026567770784
4.905953631699879 -0.9162927462259246 0.8457479551147483
5.814238520479393 -1.1955587762253623 1.1871614023464412
6.661790598716331 -1.5011146443625325 1.6758957953221574
7.262996431384272 -1.7738050041679412 2.443812511735247
7.0704382715152505 -1.8074873496885304 3.4424643437488465
6.344934823705556 -1.6386607303565743 4.134222616641741
5.458501473099066 -1.4033538397081748 4.577031697580773
4.523818986596312 -1.146647153981341 4.871498015084161
3.560429107074809 -0.8681279578097064 5.0321706024908375
2.593511497927258 -0.5646622076539635 5.078619478225431
1.6398048333383506 -0.2221688684006854 5.023780466293832
0.7173575791367334 0.17942035653509789 4.891676739170562
-0.15695255363171115 0.6647636627962209 4.718926733978944
-0.9634663711754922 1.260110276278313 4.560648939711174
-1.6723616022934462 1.9849700755260955 4.499500069895781
-2.225466333988707 2.8241117732290104 4.655311986556104
-2.539868311756105 3.666991222903194 5.123085821757825
-2.5788415845016486 4.35600505686194 5.870277730178055
-2.3895866554075 4.806748015151297 6.761342388690289
-2.0422271276009947 5.03300177350065 7.6881668817484865
-1.583127994895094 5.064324073944964 8.593014489847672
-1.0417821514183432 4.923498260020948 9.440110816356565
-0.4387084496064548 4.623101356262949 10.199786215780675
0.20433822259112458 4.177665968240749 10.843759839581615
0.8772227582262885 3.5741566907047138 11.32528472502827
1.5187193975560165 2.8857286352948823 11.621484230588743
2.158916089256605 2.0128206223874328 11.633019950149622
2.6505222142041793 1.203419971678087 11.423619120609928
LINES 1 65
64 0 1 2 3 4 5 6 7 8 9 10 11 12 13 14 15 16 17 18 19 20 21 22 23 24 25 26 27 28 29 30 31 32 33 34 35 36 37 38 39 40 41 42 43 44 45 46 47 48 49 50 51 52 53 54 55 56 57 58 59 60 61 62 63
POINT_DATA 64
SCALARS NodeIdx int
LOOKUP_TABLE default
0
1
2
3
4
5
6
7
8
9
10
11
12
13
14
15
16
17
18
19
20
21
22
23
24
25
26
27
28
29
30
31
32
33
34
35
36
37
38
39
40
41
42
43
44
45
46
47
48
49
50
51
52
53
54
55
56
57
58
59
60
61
62
63
