# vtk DataFile Version 2.0
Vessel Segment
ASCII
DATASET POLYDATA
POINTS 64 float
6.762688864701972 10.570181110979185 -6.686332270800466
5.743864146177132 10.409521907389028 -6.651929450554384
4.7592479666707135 10.248196630662404 -6.7004660860642415
3.774320982711484 10.034787092312495 -6.79834168169511
2.8118152341706018 9.735363594526625 -6.910897559307051
1.8876049925022582 9.327326062324419 -6.999592556510329
1.0220464770903437 8.80004861304576 -7.028399947230435
0.24262706544467677 8.15528762984146 -6.962658617385889
-0.4227701902132919 7.416223484309039 -6.767308494798133
-0.9597955157999609 6.63378110609501 -6.411894868466852
-1.3805258482431102 5.875514464451916 -5.88718400485426
-1.7205003771770193 5.187650275828188 -5.224249127003585
-2.0017407399844913 4.555140532202503 -4.4826767522000655
-2.200402243586866 3.917404525723685 -3.7194676445326262
-2.2337771163988998 3.215478718043573 -2.9897662874397484
-2.0080392326294456 2.4555144578834582 -2.360989329593874
-1.5103066601191886 1.7060348679636157 -1.8977330465086848
-0.7858720501930327 1.0476127966353195 -1.6426774240943154
0.11061371833869799 0.5803541472185337 -1.6182070977789265
1.089404963131151 0.3610445658563779 -1.758524149515114
2.08737752582652 0.3388795262392524 -1.9364283672984413
3.0911517921827016 0.434576459223197 -2.0445222866750825
4.091954927871014 0.5850148159109269 -1.992295719233726
5.034452322259947 0.7349649190890077 -1.659456849208938
5.665055432218125 0.7998080347804881 -0.8874384295907737
5.531145217108243 0.687859463829243 0.09181086748544552
4.796332989057013 0.4498132648518093 0.734401391542871
3.841682952382424 0.175096238571136 0.9127550941115354
2.8739295354397547 -0.0637842834253313 0.7342774767657446
1.9351551230851614 -0.2158247007848364 0.3822029317340345
0.979242914119029 -0.22666741387180273 0.04566416344556236
0.0 0.0 0.0
-0.7891201201291973 0.4396896875814225 0.4453309886321914
-1.2996853806253348 0.9029535776191034 1.1863575520387
-1.6049349915332283 1.2988021717490856 2.0677756610763933
-1.7375568518711457 1.5844020051288519 3.0308870068329057
-1.683033925441108 1.7216987863799231 4.032810426531843
-1.406241068310331 1.7006296361481004 5.006477841188272
-0.9136029068494484 1.590080060824433 5.8850772527358135
-0.2746851115425195 1.5048200411490853 6.667872416230897
0.42484451131067136 1.5490416341947155 7.400252457399328
1.0873199475038133 1.811477150220241 8.119755282866366
1.5920938826875886 2.338589952167367 8.820101819270146
1.8488363700451917 3.0851608426529418 9.452711477830231
1.8543422264173104 3.9543238183337484 9.972231071977506
1.6580002170966153 4.873208396498566 10.351234903811967
1.321007808301846 5.804220100466342 10.56779690826351
0.9184063383603936 6.733363377862867 10.620702073588431
0.5195987229821328 7.664199255364736 10.560408928520234
0.16059765089824773 8.608904830179378 10.471604697189123
-0.15850678223467685 9.571270559088521 10.44405321129785
-0.4666990758577392 10.527503783923187 10.576284387268391
-0.807699294256973 11.381266890584936 10.995328208604558
-1.184749669509258 11.907989101656103 11.765780730562303
-1.5185636791851833 11.99562217484099 12.715290829874403
-1.7610140598209656 11.779963889947474 13.675000507795636
-1.9108478541647456 11.404224366653557 14.604853608242594
-1.9789313755788456 10.961025225613833 15.514803044745113
-1.9815413275460714 10.519140595734742 16.428014437930113
-1.9418321336840176 10.13726449147312 17.36693886328952
-1.8881706064120953 9.858573704416896 18.3405651901025
-1.8472453033972998 9.696185994517176 19.33892588325714
-1.8365196100633807 9.632104267478914 20.3356087389462
-1.8676386110582757 9.636847051078865 21.36728657633833
LINES 1 65
64 0 1 2 3 4 5 6 7 8 9 10 11 12 13 14 15 16 17 18 19 20 21 22 23 24 25 26 27 28 29 30 31 32 33 34 35 36 37 38 39 40 41 42 43 44 45 46 47 48 49 50 51 52 53 54 55 56 57 58 59 60 61 62 63
POINT_DATA 64
SCALARS NodeIdx int
LOOKUP_TABLE default
0
1
2
3
4
5
6
7
8
9
10
11
12
13
14
15
16
17
18
19
20
21
22
23
24
25
26
27
28
29
30
31
32
33
34
35
36
37
38
39
40
41
42
43
44
45
46
47
48
49
50
51
52
53
54
55
56
57
58
59
60
61
62
63
