# vtk DataFile Version 2.0
Vessel Segment
ASCII
DATASET POLYDATA
POINTS 64 float
5.346177591932675 11.254886150150034 -9.285783369958757
5.234310111824069 10.47730340033139 -9.93980875542719
4.967873816633001 9.662824248798827 -10.46159516110426
4.482299222220384 8.81967627027 -10.762164079240666
3.8014031681185187 8.070073020782429 -10.727200455972644
3.0456715320009367 7.463693816388487 -10.425482069249174
2.2905621206378806 6.957384249511537 -9.975331824349315
1.5577329640112636 6.489290636599723 -9.452546228061127
0.8551379019394725 6.0088860564092395 -8.900286124762184
0.1931831613153561 5.47178654888747 -8.350044060468944
-0.4055626694968948 4.838261061029751 -7.830911325631784
-0.8990433015124821 4.079284150798044 -7.372929567199893
-1.22158333484093 3.190593381724569 -7.0051751199340195
-1.2955671545412626 2.212050686916043 -6.749179609335038
-1.0732709769503501 1.233896554227067 -6.600305322214878
-0.5786829287482954 0.3516347339380827 -6.522492973276906
0.11366246239123749 -0.3881001851422961 -6.469624829599462
0.9309216200255791 -0.9859006040854359 -6.406340569064114
1.8211981512599056 -1.4629915267489464 -6.309996561906912
2.749751111671809 -1.8442382735276954 -6.163259469420224
3.6933772422150897 -2.150305431505625 -5.948285076655106
4.6239376601130315 -2.3926032775652986 -5.628558263019975
5.501826716990643 -2.574206059191354 -5.150767508558428
6.037286631258804 -2.6260442500534613 -4.2802256318087
5.696578306154602 -2.4639327923739476 -3.3687727425128626
4.93615504278749 -2.2096294490387676 -2.7319893884128996
4.093123232979951 -1.922565492784029 -2.249759503017012
3.223877610401435 -1.6033030164321143 -1.8342035916658546
2.3579177563922094 -1.2493978323025707 -1.4416023826049134
1.5153425415795139 -0.8588175639119404 -1.0329985411515181
0.7192728581702593 -0.4359451423636616 -0.5673645994264048
0.0 0.0 0.0
-0.607534834246614 0.4038639395184317 0.7049913420194642
-1.0821033546787278 0.7088238909757868 1.5481191913547725
-1.4354983518518196 0.8592592564715296 2.487124286443257
-1.706253916875901 0.8423093404758661 3.464760563622717
-1.9320411786111222 0.6822203285373776 4.440806336337056
-2.1356652276938557 0.4155982585965147 5.398341870476009
-2.325493874404276 0.07941328621003366 6.336639264762806
-2.498357099108179 -0.2902063410977664 7.265577305977566
-2.6414790029286728 -0.6554352415714099 8.201261729906392
-2.732274651349131 -0.9708907858283624 9.16135915975716
-2.738011653756092 -1.1741590057573814 10.155410891343761
-2.6247428571394957 -1.1881513411043605 11.163152237030927
-2.3876341055094343 -0.9635227101123577 12.123192553664412
-2.068486462756707 -0.5243305150369832 12.980347661632296
-1.7225230107050957 0.06235655141965062 13.732425188435467
-1.3879226728070189 0.7412017351165696 14.408137566917885
-1.0865809862226217 1.4770199617842477 15.038360784997272
-0.8305863851939208 2.2470704396419703 15.647409848789831
-0.6251164886735896 3.036131726648576 16.25117763878351
-0.4695685109339437 3.834364122213657 16.85780749165399
-0.358807557908974 4.636667938837935 17.468898460758226
-0.2839109836952143 5.443150523089458 18.07998615146114
-0.23297509432575164 6.257841386001223 18.682559337130755
-0.1929062162693145 7.085848296786583 19.26757202044299
-0.15067363019200147 7.929441940612346 19.829664222100092
-0.09551052847613999 8.784157302489735 20.373698759650125
-0.01980465903116918 9.636000555161049 20.919300752624316
0.08108959399518656 10.463489279634844 21.498604395195205
0.2085158726132566 11.234018105676293 22.143574269562567
0.3626533103373047 11.910264635382847 22.89075262384252
0.5330351910072212 12.444528086565791 23.72265561045863
0.7165042320972529 12.825381496556904 24.653342445565194
LINES 1 65
64 0 1 2 3 4 5 6 7 8 9 10 11 12 13 14 15 16 17 18 19 20 21 22 23 24 25 26 27 28 29 30 31 32 33 34 35 36 37 38 39 40 41 42 43 44 45 46 47 48 49 50 51 52 53 54 55 56 57 58 59 60 61 62 63
POINT_DATA 64
SCALARS NodeIdx int
LOOKUP_TABLE default
0
1
2
3
4
5
6
7
8
9
10
11
12
13
14
15
16
17
18
19
20
21
22
23
24
25
26
27
28
29
30
31
32
33
34
35
36
37
38
39
40
41
42
43
44
45
46
47
48
49
50
51
52
53
54
55
56
57
58
59
60
61
62
63
