# vtk DataFile Version 2.0
Vessel Segment
ASCII
DATASET POLYDATA
POINTS 64 float
5.813629897685433 9.73485362576424 -5.414906329934126
4.866469807394916 9.642879948011112 -5.834678465536469
4.003303276738284 9.235455202958313 -6.086851096952164
3.1799267687371184 8.661538174196078 -6.230518110602047
2.377751390992419 8.044761858091658 -6.309886767837212
1.549645583406784 7.4620724808500745 -6.372202242260879
0.6722991226335977 6.959054110169177 -6.45033604130113
-0.24572927379551732 6.539632754446246 -6.552405901555763
-1.177951958942118 6.150558427359618 -6.6471642363080035
-2.061809510421195 5.655520497356465 -6.618661298744783
-2.6036519476346762 4.909932588302842 -6.230812093814713
-2.637363173432651 4.119426123859765 -5.601248311027304
-2.3814610662835336 3.391194381869019 -4.944541432475231
-1.9415448842987535 2.723728404491662 -4.320874227240698
-1.3566081742391032 2.122466355830099 -3.7511666913824664
-0.6508247436208667 1.5977561210423776 -3.246293781609573
0.14997670369295946 1.1492303032315279 -2.8147918495950544
1.0150520846291713 0.7588490076962618 -2.4566836823465663
1.919205643976384 0.4123822278224128 -2.1538719266979602
2.84709837567783 0.11593736846613428 -1.870312407266561
3.784549741781342 -0.1142821883390137 -1.5585271709337036
4.705854662686502 -0.2597083105925797 -1.1604775812855177
5.547838413098835 -0.3021919234079857 -0.5992199858440119
6.120754328596682 -0.23522504636518904 0.2277518956610105
5.97700409116416 -0.13870632698898697 1.2051472359448612
5.213589645800134 -0.16252644046590253 1.8639727231027656
4.2565066186607305 -0.3008886316519981 2.1611441639235998
3.263864910753129 -0.49606380271316924 2.129356165642339
2.3239231006602123 -0.6436369976360976 1.7837425598616095
1.4827554799004108 -0.6250488741972539 1.219713464960413
0.7234090008837675 -0.40019558685591483 0.5869957705869057
0.0 0.0 0.0
-0.722390861325905 0.5327757659304374 -0.4713395475352004
-1.45407167690238 1.1731918478673025 -0.7560631312092162
-2.1613789579689326 1.8943294894275144 -0.7200086829229094
-2.7251749470808764 2.575679064487412 -0.23540837487519553
-3.071837179553829 3.069558051096541 0.5766093934063714
-3.240542156088101 3.352579035084098 1.5344619423540662
-3.2404571289685022 3.42407460575946 2.5446531892311826
-3.0055711465391624 3.2603914917649752 3.514336789951447
-2.462102804672361 2.8832070734609188 4.277237177499183
-1.6983971185500024 2.426555156546195 4.761770154127016
-0.8573771847606706 1.9838832975213814 5.116722097906431
-0.03071146568449599 1.5761261221728982 5.539310402601974
0.6172388210566018 1.2302442188326437 6.231266276484824
0.8875554470050301 0.9941880695553781 7.175866006665966
0.8421460712345242 0.8553243248709542 8.17827429784424
0.5854550531393934 0.8054781299934745 9.157544672560041
0.17363083291662784 0.882951344003487 10.080435904349548
-0.32465898920143205 1.180569634319803 10.910020743595572
-0.7359607151769891 1.841974729820881 11.549039288422575
-0.8250653216906486 2.7904276631824514 11.883228168546047
-0.6853648468666141 3.781862493002598 12.044507225275412
-0.5106653277206167 4.769908988635883 12.19474042688992
-0.41268183563916594 5.756222670371703 12.409490649753103
-0.43084852906366145 6.726077846796977 12.705609378523286
-0.5081137519147384 7.677351436547888 13.049897662195011
-0.5381645864495392 8.63067974969466 13.395127655652093
-0.44646732565610997 9.590542909544949 13.70940418456867
-0.24464779447214866 10.542586913348549 13.995811818166187
-0.008755439882729612 11.485898287172102 14.28585119519012
0.11713074986265504 12.428307238069506 14.634610222946115
-0.30747757320136326 13.1596872429554 15.097466599589398
-1.2861718359720062 13.21863547092984 15.453395925596517
LINES 1 65
64 0 1 2 3 4 5 6 7 8 9 10 11 12 13 14 15 16 17 18 19 20 21 22 23 24 25 26 27 28 29 30 31 32 33 34 35 36 37 38 39 40 41 42 43 44 45 46 47 48 49 50 51 52 53 54 55 56 57 58 59 60 61 62 63
POINT_DATA 64
SCALARS NodeIdx int
LOOKUP_TABLE default
0
1
2
3
4
5
6
7
8
9
10
11
12
13
14
15
16
17
18
19
20
21
22
23
24
25
26
27
28
29
30
31
32
33
34
35
36
37
38
39
40
41
42
43
44
45
46
47
48
49
50
51
52
53
54
55
56
57
58
59
60
61
62
63
