# vtk DataFile Version 2.0
Vessel Segment
ASCII
DATASET POLYDATA
POINTS 64 float
8.916644292772865 11.061896452667467 -7.892765220140756
8.020352906536974 11.495851964992683 -7.571260727193893
7.089813719802804 11.745737284509449 -7.42808441245302
6.075086069353525 11.87231508476145 -7.378893313817322
5.062449871458242 11.856247777427251 -7.404944705606056
4.059326243068006 11.714942168251456 -7.457907933178185
3.0804730307479162 11.45180091034702 -7.49827662370386
2.142644282639778 11.065653013290564 -7.487352747562881
1.2706892394398797 10.556935307509107 -7.390417147508583
0.4954367387228925 9.936612917976747 -7.184117519889715
-0.15974082860461133 9.231755569725564 -6.864164278282692
-0.6922962108840938 8.477416101463985 -6.444467398903197
-1.1173602097976019 7.703243546321963 -5.945466869387844
-1.4570938281819938 6.924724398220073 -5.390753870863347
-1.731246413733149 6.134798147173116 -4.816171956571992
-1.9449958278899881 5.297682152252177 -4.284236970864046
-2.0605432153327317 4.368486544899461 -3.8963948873945826
-2.0128962413234865 3.3750414741114163 -3.7007149538753086
-1.7873127944861247 2.389981652185472 -3.6159301618682913
-1.400637940478028 1.4548244174610587 -3.5481834552592826
-0.873186046363935 0.5948738045500973 -3.4437697655909845
-0.23256330219853297 -0.1730384876373156 -3.274527670814498
0.4875181801717495 -0.842471300537113 -3.025109386022791
1.2514357127512297 -1.416018162431557 -2.6839970938250457
2.0239460077939726 -1.8971674296391772 -2.236432155281589
2.758379411997981 -2.2767361339272627 -1.648797743421043
3.3452502946551403 -2.4958226453666708 -0.847407004106267
3.2676520083208267 -2.273704916083992 0.07209271170512747
2.478052060682841 -1.7013762269220638 0.4033236024588965
1.6401034190100137 -1.1344339081951826 0.37167269961474025
0.8127423377583818 -0.5698865498892562 0.2102651909097199
0.0 0.0 0.0
-0.8063499081511617 0.5842479054965531 -0.1944411269415397
-1.614624377782338 1.1884351051057098 -0.29654585526303495
-2.4155642639819357 1.8017598422469077 -0.19742588175960502
-3.142660035129819 2.3707599869845137 0.21740709854214021
-3.695641593322638 2.8195898408219833 0.9375994600572144
-4.05359843504092 3.137615353310643 1.8313474282018256
-4.2621561046016465 3.364410601222514 2.797747581266449
-4.369346781086517 3.537845483614622 3.79149180488017
-4.408735339166783 3.682397932662603 4.794941741542645
-4.400838560473129 3.812316866318988 5.801128808879104
-4.357141712843944 3.935937123496681 6.807232333862888
-4.280620333239896 4.059527611362249 7.81136108321577
-4.163629327791178 4.189900513583689 8.810693831779323
-3.9871053991463032 4.33840730881362 9.798670488584815
-3.7237545874332407 4.524062791771089 10.760547764190017
-3.347376570522336 4.771401698651368 11.669320381561608
-2.849136825996274 5.101040838487039 12.488768208960929
-2.2486159785340725 5.519176773253321 13.190966941288726
-1.5844408880653802 6.0189502717132095 13.772249768572213
-0.8938168842995534 6.591506765834286 14.245784781923701
-0.20585387656398876 7.231013131343759 14.628973264839255
0.4568895912669695 7.933019525533906 14.940648463666719
1.0771891915945457 8.691513233693573 15.203639516612881
1.6420800534402527 9.498391001981556 15.446731473605816
2.141365987279495 10.343272608747396 15.703896674870437
2.565854909809856 11.212108373715964 16.01048903723795
2.905318317630043 12.086856507376487 16.396053724591045
3.149248982404253 12.947847859374068 16.87361837638536
3.2906839180377343 13.780347536730982 17.432921690180724
3.326259270132071 14.58942649032495 18.061613917374796
3.2737074308686673 15.327668544119746 18.69237391937178
3.116419606192518 16.09007485858968 19.392977831840284
LINES 1 65
64 0 1 2 3 4 5 6 7 8 9 10 11 12 13 14 15 16 17 18 19 20 21 22 23 24 25 26 27 28 29 30 31 32 33 34 35 36 37 38 39 40 41 42 43 44 45 46 47 48 49 50 51 52 53 54 55 56 57 58 59 60 61 62 63
POINT_DATA 64
SCALARS NodeIdx int
LOOKUP_TABLE default
0
1
2
3
4
5
6
7
8
9
10
11
12
13
14
15
16
17
18
19
20
21
22
23
24
25
26
27
28
29
30
31
32
33
34
35
36
37
38
39
40
41
42
43
44
45
46
47
48
49
50
51
52
53
54
55
56
57
58
59
60
61
62
63
