# vtk DataFile Version 2.0
Vessel Segment
ASCII
DATASET POLYDATA
POINTS 64 float
8.27578250727297 12.518194113260323 -5.62519164268634
7.258371753172861 12.512033795402202 -5.873418669966183
6.329704434775318 12.429016477875582 -6.149919084632133
5.359232706991417 12.279409765912753 -6.44548386835402
4.410659314721791 12.054776034679167 -6.720793948761001
3.4734522611869014 11.739966635961364 -6.947953511839506
2.5642877977641363 11.310448833889977 -7.080706938666458
1.7227768880514223 10.7458157446222 -7.057601895385976
1.0058444986130042 10.062588899058238 -6.841870545718744
0.43180063680479136 9.3128228425971 -6.47196976229479
-0.035830270036463004 8.531510665307689 -6.02469920614781
-0.44309696862771525 7.723286843635833 -5.566152338001367
-0.8197677402597636 6.877357848138269 -5.151764970573344
-1.1707935347880332 5.979723159313169 -4.835750710430141
-1.4696204718282948 5.0254543524339095 -4.666898928941061
-1.6643602267337416 4.030398519173031 -4.664808764442545
-1.7046313801529904 3.025998336578055 -4.798311325227726
-1.5641512343846637 2.0421278012396207 -4.999937451239546
-1.2430363682516958 1.1003767186659972 -5.195838859281371
-0.7575368450981755 0.21964823147978735 -5.32620286422056
-0.1346385662022852 -0.5801806058771596 -5.350747873563862
0.5916266608353289 -1.2800898443542899 -5.245915628708648
1.3831722140890994 -1.8630270824681743 -4.996992276242661
2.1952805829429303 -2.3075857336613437 -4.583853056500305
2.9544140911676 -2.571380772290773 -3.9669376154140594
3.4977447703409057 -2.5811306143066624 -3.1143182187101246
3.5950592928625267 -2.31515938499552 -2.145167640717008
3.22804388262963 -1.896751342069675 -1.3002069257515596
2.562261410390762 -1.4403052158752707 -0.6880001272238729
1.7473779917948518 -0.9779403409984809 -0.30024403856339527
0.8760246662208836 -0.5037477439417732 -0.08893588079483049
0.0 0.0 0.0
-0.84906266928379 0.5548355024954615 0.023329631942959776
-1.646867041492251 1.1809346162753074 0.04682770936169696
-2.3668742725671392 1.886891152560395 0.1552280567372512
-2.9723889754042254 2.641168286052346 0.45776857920722036
-3.4252834558448546 3.3385117818760524 1.0355905697290642
-3.728208548894088 3.860672114876685 1.8494576910704288
-3.9303451942317986 4.183103357664937 2.7893006699277842
-4.0788152261570785 4.346088544107271 3.7793608236282066
-4.199501270518561 4.396187212116675 4.785388216210842
-4.301441152878793 4.369828334225379 5.794480937602834
-4.381440247210823 4.295085341789992 6.803106151670296
-4.423801416685875 4.1971825311275675 7.81211949678928
-4.395681821270005 4.105940929198909 8.8221102036449
-4.2394102968312986 4.0662957238391115 9.823348896842448
-3.8792802978418233 4.146759755774688 10.767092045136692
-3.297353115566679 4.401824959805376 11.556025162931988
-2.5864769622105115 4.807367181611678 12.154671617586272
-1.8373729416994848 5.310150702327298 12.618350769150268
-1.091623027755856 5.874979261599648 13.011011504491503
-0.36632052476298477 6.483562222495191 13.375612318719703
0.3299870213660337 7.124364217487367 13.741504426619434
0.9907258682268969 7.792700346579149 14.123745958099661
1.6093522555507351 8.486280146057249 14.530645595567815
2.1785149979648515 9.20602676490718 14.963446765271549
2.689430883517986 9.953248646778068 15.421593728386206
3.131130052133548 10.727474005816129 15.906032155875828
3.489189282484878 11.524548351792385 16.421445205009995
3.7439749019095956 12.33385800060045 16.977438436198298
3.8682643514764457 13.133558196959472 17.58708550770368
3.8133388843150047 13.887861412266941 18.274966907415525
3.5725727892468995 14.506679610466433 18.989503667446872
3.0571228758133975 14.943633896030596 19.78761799274988
LINES 1 65
64 0 1 2 3 4 5 6 7 8 9 10 11 12 13 14 15 16 17 18 19 20 21 22 23 24 25 26 27 28 29 30 31 32 33 34 35 36 37 38 39 40 41 42 43 44 45 46 47 48 49 50 51 52 53 54 55 56 57 58 59 60 61 62 63
POINT_DATA 64
SCALARS NodeIdx int
LOOKUP_TABLE default
0
1
2
3
4
5
6
7
8
9
10
11
12
13
14
15
16
17
18
19
20
21
22
23
24
25
26
27
28
29
30
31
32
33
34
35
36
37
38
39
40
41
42
43
44
45
46
47
48
49
50
51
52
53
54
55
56
57
58
59
60
61
62
63
