# vtk DataFile Version 2.0
Vessel Segment
ASCII
DATASET POLYDATA
POINTS 64 float
6.482715368243182 11.981216246673272 -6.479682646395415
5.592601762162273 11.4600392418721 -6.657238335728632
4.729834895774484 11.057715508507044 -6.8881167221138195
3.833873310424679 10.652201435739014 -7.1471557823744325
2.9519760046191212 10.215383465678714 -7.396256011356702
2.0980543344234275 9.704419618300271 -7.591782989438215
1.2921709523258518 9.093973956211011 -7.6674503082232315
0.5569420508904663 8.40706504808373 -7.546997413216541
-0.10204464608841021 7.718182339849588 -7.202898863502622
-0.703704759180546 7.085358209976313 -6.687096890636773
-1.2686889592916153 6.4894546691308586 -6.091198376520723
-1.7823432202313632 5.839501678501426 -5.506147412880015
-2.127045764952595 4.997750115838333 -5.065505240545026
-2.0837441034499737 3.997981403307296 -4.941550881037842
-1.7034535915921254 3.062562982748742 -5.025456272260708
-1.132889002227003 2.231680632014631 -5.135714508060077
-0.43183115337765426 1.5007519286443505 -5.184174530547225
0.37058538642446726 0.8844467426053946 -5.1209176808377785
1.2428691667158442 0.40677179045537165 -4.924451998860542
2.144136350163635 0.0595671236239055 -4.61494348989275
3.041620231729241 -0.222558786160991 -4.235131669976286
3.914355607635773 -0.5201922810608217 -3.8119953026294016
4.737562756994555 -0.8795045010162104 -3.340655691096553
5.4659038075887185 -1.2981324553358626 -2.776061022121727
5.954089212083499 -1.7005160573307565 -1.9856937984269687
5.649503989600081 -1.7112911615991735 -1.0508544110061604
4.819653926087261 -1.3903041043532511 -0.5609629247672598
3.887937833039731 -1.0549271408039234 -0.34655572682681507
2.9177646910863326 -0.7665565124559144 -0.28181114934833407
1.9328445738458908 -0.5229831341744464 -0.27319181963309214
0.948646583856795 -0.283890185238307 -0.21622087789369965
0.0 0.0 0.0
-0.8606871637632507 0.330260814207169 0.42125468336061767
-1.6216412391668487 0.6543869144377856 1.0079004361052264
-2.300340694415643 0.9255307564244933 1.7110842409569207
-2.9035438118686234 1.1307453954765085 2.500291675418799
-3.421247689611876 1.2851746541567242 3.358759524389513
-3.8308197479733077 1.4121089995614207 4.277850141189739
-4.100500153514419 1.5250919793478528 5.248861649553312
-4.2010252206478125 1.6253657598155855 6.252827386539123
-4.120866369347185 1.718697776994874 7.259242990680019
-3.8719486952380224 1.8489004871890367 8.233533320051333
-3.4798224304324386 2.1030035530708444 9.13284416913041
-2.9967807175481265 2.5484617474450615 9.904139618289928
-2.4926117072494316 3.1547574283379087 10.54175677760998
-2.002826454394094 3.848187788776458 11.09710867148693
-1.5316303490393952 4.580984919086791 11.617080380015752
-1.0745905962210505 5.33709621452949 12.115855368045592
-0.627589291434043 6.123722436540731 12.57479987539246
-0.19090725046152635 6.951704728958605 12.965779627462782
0.23214104340228037 7.815587320414514 13.288223965578279
0.6375352826150695 8.696270104854861 13.58731405335631
1.0146332377401523 9.567395385396809 13.945000232456737
1.3274545656179975 10.385525110090203 14.454873382014032
1.5002814012360273 11.076732202479059 15.17400943749579
1.4600425702357327 11.573350686790093 16.055309182762272
1.2186670994888134 11.872916625515707 16.992799057980246
0.8565134597918526 12.01291197187269 17.929621881280656
0.4671665849504723 12.025712906371224 18.866143287919446
0.13201725675820536 11.932146182831788 19.818759058367682
-0.10142398780838886 11.758239722698296 20.79106434377986
-0.23822976561863435 11.547126498228158 21.776392374124878
-0.3108146262377754 11.350921029313582 22.73287229733168
-0.36035507092956964 11.201943962681161 23.76803330636054
LINES 1 65
64 0 1 2 3 4 5 6 7 8 9 10 11 12 13 14 15 16 17 18 19 20 21 22 23 24 25 26 27 28 29 30 31 32 33 34 35 36 37 38 39 40 41 42 43 44 45 46 47 48 49 50 51 52 53 54 55 56 57 58 59 60 61 62 63
POINT_DATA 64
SCALARS NodeIdx int
LOOKUP_TABLE default
0
1
2
3
4
5
6
7
8
9
10
11
12
13
14
15
16
17
18
19
20
21
22
23
24
25
26
27
28
29
30
31
32
33
34
35
36
37
38
39
40
41
42
43
44
45
46
47
48
49
50
51
52
53
54
55
56
57
58
59
60
61
62
63
