# vtk DataFile Version 2.0
Vessel Segment
ASCII
DATASET POLYDATA
POINTS 64 float
6.473569262039312 13.175891458546504 -8.87135797803895
5.768420589022806 12.479352644659963 -8.536380450093784
5.006685513595623 11.913564123235213 -8.318727850328054
4.146776846178993 11.385631028749321 -8.135376495195453
3.2564546451432466 10.929824224967465 -7.976569843793498
2.345441730855812 10.51633243308808 -7.8071775299315815
1.4323381296634927 10.123040028768461 -7.604652784193128
0.5357745014053606 9.721134088850533 -7.3518270781867745
-0.3202037662042524 9.274885009061816 -7.039910157033644
-1.1013580239885326 8.741447121759975 -6.673853342076135
-1.751567081710935 8.071627492072128 -6.278059900728355
-2.1803017083484506 7.231340161642077 -5.908729372682251
-2.2958105494739915 6.260430066762447 -5.645965380588456
-2.0851083841590365 5.27678002146137 -5.526211227338004
-1.6065224726760552 4.3834192841255915 -5.509036565580928
-0.9236997615126278 3.634105518502202 -5.520199313745769
-0.09391579160465195 3.0525252541789754 -5.48531702901815
0.8188129403818746 2.6308010410041316 -5.3529617229291855
1.755322335439107 2.3259967112378015 -5.110220923464299
2.679617471191364 2.082738019027925 -4.7701140932048505
3.573802331963154 1.8520764010685686 -4.349987287899303
4.4238515272927295 1.5945283378230128 -3.8599609967102153
5.2061796229446164 1.2735573231624564 -3.2994517865700934
5.859494717054691 0.8432402137318221 -2.6538819399038016
6.164831996309548 0.23948294770172293 -1.9050930946414937
5.724472485270682 -0.37579583099231456 -1.2602176745614253
4.824869283143006 -0.7142285904525464 -0.9240896396498279
3.8368879218532794 -0.8463686385543839 -0.7394791892557632
2.8311083676091435 -0.8333547084300631 -0.6086052310795281
1.8353719127227066 -0.6908316814689919 -0.47748852440732503
0.8763727136475195 -0.41539971424370803 -0.29549276062052493
0.0 0.0 0.0
-0.7157336393977258 0.5340499601436484 0.4787669116040653
-1.19466636505744 1.0986309870544104 1.1702563023627237
-1.4385322294255791 1.580395324065108 2.0280680438190033
-1.5222097370904297 1.9264006441956227 2.9777190796963144
-1.5238193388391181 2.145413667635512 3.968213901110971
-1.495055591990903 2.2675531930804627 4.974900613215687
-1.4664665050625576 2.3243838070688256 5.987484369494579
-1.4540009323138845 2.3464656346828825 7.0017451299021
-1.4612387191002052 2.3630083010056095 8.016257736463958
-1.478303340745628 2.4019326894502435 9.029906408676325
-1.483905378048226 2.489978792764381 10.040646688410268
-1.4534194218333196 2.6539667747795126 11.041241369729038
-1.3665017191116726 2.9199620677417277 12.016262232196777
-1.2184274687204497 3.308621023238927 12.941301394372358
-1.02619224646064 3.828673262079703 13.790639350639744
-0.8188173676892732 4.474276693457548 14.544936641501264
-0.6245843135758808 5.227445349707504 15.195968627838422
-0.4631140759555284 6.06452851500736 15.74568163973555
-0.34419184089626736 6.96147766747938 16.20443687519768
-0.2696977223614447 7.897752659764108 16.58792060038759
-0.2371238250203738 8.857790829876484 16.91435608078515
-0.2435566604457442 9.830580044224568 17.20244105033934
-0.2874401303355632 10.808295830603056 17.470006355715075
-0.3682915507457702 11.78478677064907 17.73316145614879
-0.48508928882049845 12.754525593381707 18.007808341343196
-0.6326718264005305 13.710351420192739 18.314303317506415
-0.7963135813982639 14.638400451598185 18.689921958889542
-0.9427583030938732 15.501105433936578 19.2024965668685
-1.0151448682098443 16.202470593716473 19.92764395659654
-0.9636447182141077 16.618967709472926 20.860100833965916
-0.8218032665561186 16.762598616467287 21.812389970276087
-0.6021086564731312 16.711716845127494 22.834230419378294
LINES 1 65
64 0 1 2 3 4 5 6 7 8 9 10 11 12 13 14 15 16 17 18 19 20 21 22 23 24 25 26 27 28 29 30 31 32 33 34 35 36 37 38 39 40 41 42 43 44 45 46 47 48 49 50 51 52 53 54 55 56 57 58 59 60 61 62 63
POINT_DATA 64
SCALARS NodeIdx int
LOOKUP_TABLE default
0
1
2
3
4
5
6
7
8
9
10
11
12
13
14
15
16
17
18
19
20
21
22
23
24
25
26
27
28
29
30
31
32
33
34
35
36
37
38
39
40
41
42
43
44
45
46
47
48
49
50
51
52
53
54
55
56
57
58
59
60
61
62
63
