# vtk DataFile Version 2.0
Vessel Segment
ASCII
DATASET POLYDATA
POINTS 64 float
2.975801126639162 10.996898306586399 -8.21629743290158
2.5892414401895505 10.20391526996935 -7.651651430705385
2.136066748525532 9.422603407166736 -7.277947465161453
1.6103817211341696 8.588131425333316 -7.02656031687958
1.0674438472869805 7.742722229312688 -6.882672650424888
0.5455069242262449 6.880956437329433 -6.764436103162358
0.08020938323577308 6.001575179428005 -6.5675931014332525
-0.30396889887283807 5.1351766974594595 -6.207804902208305
-0.615086556645411 4.324892701326769 -5.683367193621289
-0.8823335819835347 3.570043076415592 -5.060506363676178
-1.1153707659167769 2.8259130885385155 -4.4114203932926905
-1.276510759300937 2.031924768332241 -3.8013277908218877
-1.2614906011115403 1.145287092671827 -3.311989323726124
-0.9325968387080525 0.2311185814261022 -3.0336211782593527
-0.28655792886326037 -0.5438855712972313 -2.9551554584022357
0.5627237514778539 -1.0960211250401115 -2.9703796472127038
1.521520617462229 -1.4233565297755177 -3.001513346169504
2.5272799959422767 -1.5513727385122442 -3.0109255451105486
3.5405692806249824 -1.519711345761597 -2.981458388434504
4.541199920503793 -1.3733288900122085 -2.901942018762656
5.520528480704967 -1.1551274779109322 -2.7536024355940376
6.467233284800321 -0.9039156859744834 -2.490013146073981
7.3185919120905405 -0.6628250036321153 -1.9871706538925316
7.580328674421818 -0.5214726843424624 -1.0573826039485554
6.943392696477314 -0.48374634927431276 -0.28029754322712164
6.020875463982385 -0.4351439356627612 0.1316495077749556
5.020020908204077 -0.363875021617823 0.2768575195492211
4.009620385210909 -0.2947116306802144 0.2248730364778258
3.0074542715703325 -0.2539817617024356 0.07225788202438865
2.003838151271256 -0.22837555045484925 -0.07414183992686033
0.9930479930989742 -0.1613163500496072 -0.12271590150650159
0.0 0.0 0.0
-0.91910186155234 0.2621544085796456 0.3365074014567557
-1.7023668272596408 0.5885881265582426 0.8901112560605436
-2.280042474363682 0.9277419549376524 1.6494266119392267
-2.5289103172050647 1.20540828206525 2.5890679140542323
-2.2746470340191975 1.293843809521997 3.558264708546194
-1.6171541917568735 1.142837853429585 4.312249766084347
-0.8396642400371289 0.8477000334673935 4.892679622927002
-0.07678377546032682 0.47310275436673915 5.44657842085961
0.5863014049444284 0.057521681512843745 6.0911630161349235
1.0631548457798388 -0.33640922197420897 6.893395987815345
1.3273853173791001 -0.6279001541729511 7.827255666207774
1.4433190428581728 -0.768213779865822 8.824624785784216
1.4847326435290191 -0.7281644541201906 9.836809836068833
1.4877767792719283 -0.467397717619701 10.816034699833326
1.4471124402410542 0.061491073950374446 11.67832502722697
1.3259957995094145 0.8458365992435376 12.306026895820725
1.0984297572735542 1.761813059850531 12.675084552457182
0.7778687004057058 2.6971122034539485 12.90198625736632
0.39793031932548534 3.6140778954372754 13.11202108455177
-0.0009501486406845693 4.5125205200261265 13.36307189772627
-0.38322867279343464 5.408744282923346 13.645939401217305
-0.7268912283210054 6.327250524703764 13.905660712734509
-1.0256389169649833 7.281870829092182 14.07346084809016
-1.2882351874576252 8.260765210035268 14.112371196913562
-1.5358263989708154 9.24241740660326 14.046557513705226
-1.7955072871367357 10.218520878642677 13.95086949035373
-2.0946375035696705 11.187435384826154 13.938683592603914
-2.450006348091593 12.106583553216645 14.170736143833341
-2.831619993454908 12.811898851870135 14.783717990687832
-3.1752739229325493 13.167475850507554 15.670311853154542
-3.4605796438332823 13.248314688577963 16.601252494686488
-3.734141598991729 13.125989834511222 17.60510656914934
LINES 1 65
64 0 1 2 3 4 5 6 7 8 9 10 11 12 13 14 15 16 17 18 19 20 21 22 23 24 25 26 27 28 29 30 31 32 33 34 35 36 37 38 39 40 41 42 43 44 45 46 47 48 49 50 51 52 53 54 55 56 57 58 59 60 61 62 63
POINT_DATA 64
SCALARS NodeIdx int
LOOKUP_TABLE default
0
1
2
3
4
5
6
7
8
9
10
11
12
13
14
15
16
17
18
19
20
21
22
23
24
25
26
27
28
29
30
31
32
33
34
35
36
37
38
39
40
41
42
43
44
45
46
47
48
49
50
51
52
53
54
55
56
57
58
59
60
61
62
63
