# vtk DataFile Version 2.0
Vessel Segment
ASCII
DATASET POLYDATA
POINTS 64 float
6.046263612076961 12.197226612991333 -6.48848330736496
5.006446064076996 12.08945115252917 -6.4078879739867265
4.05788771411642 11.866444216290168 -6.391832745541136
3.0995045193869912 11.517211919602818 -6.411083572238544
2.2076943579134993 11.036032033555001 -6.455659090748084
1.4074043259602753 10.415711339869114 -6.507305344159951
0.7313973915489069 9.660893662432748 -6.544906789097052
0.20124823636287695 8.796529246397693 -6.544403280333953
-0.18647449418208684 7.861309227137013 -6.484737655193277
-0.4541737597051878 6.891635325849859 -6.354750183231552
-0.6286341003057458 5.912399981430336 -6.155509804494801
-0.7304860569634919 4.936481576906601 -5.897869180822175
-0.7678405457417528 3.9670057525076854 -5.601199866208451
-0.7310666077382004 3.0012306038573087 -5.2929930940961585
-0.5895381752672939 2.039052473999871 -5.00469159031803
-0.29870453186795115 1.0986190919035883 -4.761574136244314
0.1782343998615256 0.22520052417029987 -4.5684726546749665
0.8437522539801615 -0.5218924923034876 -4.406200851308629
1.6596628922024093 -1.1006139243007524 -4.2415899665126195
2.568297475588197 -1.5040720717810416 -4.04229104552931
3.518208631886264 -1.746296395597927 -3.782655332710193
4.467502189242342 -1.8424418921621522 -3.43915288132891
5.370878887677806 -1.799925448823587 -2.980666874313884
6.143508444301484 -1.6117134690764294 -2.3557615146713613
6.490184956951741 -1.2473649587576032 -1.4852232045257925
5.9242404033888825 -0.8829733817978899 -0.7450109894125394
4.986341399098581 -0.6854792449377773 -0.4165849253769905
3.988369094146929 -0.5642515471104025 -0.28335764187691453
2.978767452176754 -0.47037688498869773 -0.2489054727185432
1.969265554020267 -0.3689593934561834 -0.24909708123026067
0.9658051012901478 -0.2255572914656801 -0.20967178088691107
0.0 0.0 0.0
-0.7690339261938206 0.31164025663082046 0.5720271764835073
-1.1791814273424948 0.6009668003231119 1.4509909959899654
-1.3445422951754533 0.8087161694688919 2.4295443756121013
-1.390266247298702 0.9488351923557152 3.4332792417106535
-1.3747417135759294 1.041761165532651 4.443377552863668
-1.324891995188682 1.108984247665281 5.454522314454501
-1.2522182290525277 1.1737577810976139 6.464440628651572
-1.1596740533099172 1.261508916504595 7.470988542681006
-1.044904608157153 1.4010211413209974 8.469279140536555
-0.9046987239983583 1.6241166886276843 9.44888342987245
-0.739564291442195 1.9648966914579715 10.38971642057209
-0.5595384101203881 2.4551321749990094 11.258872664982364
-0.38676992667769317 3.11072149263291 12.012576374757776
-0.2470744656831182 3.915474880286818 12.613066738738027
-0.15503759297779016 4.824497446799094 13.052907384252917
-0.10743864392180712 5.790408410814155 13.358868567660412
-0.09085506276978932 6.781827219303289 13.573487225699743
-0.09109335452463994 7.782564281455061 13.740757905558963
-0.09709710048440134 8.783764937085166 13.904962519594454
-0.1036044232296853 9.776866208516974 14.112165642609286
-0.11225541550819157 10.745731501617165 14.412398337217425
-0.1321461496623704 11.655980637580411 14.858651287883474
-0.17822218823802047 12.444516586647461 15.493375084099387
-0.26250513034548706 13.031788685114302 16.3145850105482
-0.38125663681474226 13.379593851660621 17.259070722510955
-0.518006540258101 13.519520516076474 18.254117227609456
-0.6565593470125485 13.512490186326103 19.258945060078815
-0.7845296393524068 13.419447449445313 20.261059172724575
-0.8920005857965283 13.306588100460377 21.26368388513095
-0.9673262339052684 13.275274156774747 22.275970715928914
-0.9884968898358617 13.520354797146778 23.237711102805747
-0.9197449709220199 14.391570602170079 23.786029641946083
LINES 1 65
64 0 1 2 3 4 5 6 7 8 9 10 11 12 13 14 15 16 17 18 19 20 21 22 23 24 25 26 27 28 29 30 31 32 33 34 35 36 37 38 39 40 41 42 43 44 45 46 47 48 49 50 51 52 53 54 55 56 57 58 59 60 61 62 63
POINT_DATA 64
SCALARS NodeIdx int
LOOKUP_TABLE default
0
1
2
3
4
5
6
7
8
9
10
11
12
13
14
15
16
17
18
19
20
21
22
23
24
25
26
27
28
29
30
31
32
33
34
35
36
37
38
39
40
41
42
43
44
45
46
47
48
49
50
51
52
53
54
55
56
57
58
59
60
61
62
63
