# vtk DataFile Version 2.0
Vessel Segment
ASCII
DATASET POLYDATA
POINTS 64 float
8.407569246153644 9.053716929527795 -8.226138642365619
7.454904160549584 8.632006478126334 -8.227167093953609
6.554728265903976 8.28134356203645 -8.376040089277062
5.611779197090963 7.940062245949667 -8.598095027973011
4.684977993136274 7.625281826768108 -8.85321772376828
3.749412710917481 7.316871314253856 -9.09870783583418
2.803107500993781 7.0034899725064035 -9.286786013047799
1.8480801902623 6.666858317558711 -9.345545786010886
0.9243723141516961 6.285374479995551 -9.176850863401487
0.12119403185342201 5.850575960125973 -8.737558859963158
-0.5186830714779265 5.365450667198325 -8.117631838809958
-1.0329422925572787 4.8192155339262985 -7.434762426823153
-1.4610771928035746 4.19192348370389 -6.762237024166324
-1.8149609601534245 3.4658367737043076 -6.148633238083467
-2.0795550996524033 2.63461624325517 -5.631137780465196
-2.2177950880630615 1.7113604980037733 -5.234948121800254
-2.1784818055441124 0.7335415083272632 -4.9695233171113395
-1.9156857267777727 -0.23391038666729724 -4.81826388772749
-1.421615264180473 -1.1152457078516322 -4.733694836971969
-0.7401208783049631 -1.8621952215334228 -4.655554972013186
0.06459880506128085 -2.467814657478379 -4.535435172806853
0.9388326522787861 -2.944817479020257 -4.342737396370716
1.8433382879447622 -3.302213505218932 -4.054842688225783
2.7427161021681634 -3.5313464685567566 -3.644668737882114
3.5801331836656076 -3.591378800593748 -3.0811379036963253
4.16119173664403 -3.307703765497533 -2.30212701934547
3.9759676808245423 -2.6129701649739974 -1.5957708060483757
3.343792642610533 -1.9397137027251357 -1.1807606671485495
2.5738986144113363 -1.350610042338774 -0.8819288553262767
1.738747107131869 -0.8372155861778848 -0.6206141243831826
0.871694300990079 -0.3895297540054488 -0.3429486265583624
0.0 0.0 0.0
-0.8345531414284679 0.34324161881925336 0.46317700569891707
-1.5644652044688543 0.6591394377871841 1.0921858964773645
-2.1231761928950417 0.9668619499526937 1.8803965001019756
-2.503110542087466 1.267304027632072 2.771637888821018
-2.742631293877255 1.543109184243937 3.7180032011233237
-2.881823476186788 1.769114151440518 4.697198348219099
-2.951541686096608 1.9186821142918744 5.698120031504844
-2.9752659296491064 1.9694322262810653 6.711091217136188
-2.9710808058818374 1.9169259828417515 7.724207167691963
-2.9484220832419252 1.7847552419426156 8.729846291524565
-2.9066117836845695 1.617157706336228 9.729690315195986
-2.836635718570162 1.4639113272167878 10.730137336103756
-2.72282745831218 1.3741629287130717 11.734223876664458
-2.5455132498383706 1.3955425299115323 12.732734065159967
-2.28721988556464 1.5709239343987484 13.697662229841317
-1.9433321079953558 1.9234491799629942 14.58409744981201
-1.5309166305956747 2.441099341413982 15.352451248969777
-1.0815704285051662 3.0860333717529835 15.993635214331762
-0.6276243203125543 3.818829442396713 16.52855985126908
-0.1952433845127214 4.6114031201983225 16.991256719414054
0.19396335677163626 5.446749973641768 17.415602892604753
0.5212582951815208 6.3131243069307885 17.829865294907897
0.7715272712955258 7.199509803854452 18.25526646893973
0.9349957999287255 8.092967976807428 18.707204719701764
1.0086873975819846 8.977633767421718 19.19818622844501
0.9975911000954756 9.834571118078792 19.741063033808157
0.9150489723989393 10.64044787522001 20.351713986987438
0.7819206296206089 11.363951935003893 21.05065523635102
0.6252988660466895 11.962497616375245 21.851405748853114
0.47474219285323704 12.379610844711578 22.77566604326826
0.35870599617104765 12.581509958428725 23.725532850325575
0.2848784753554299 12.5480896386826 24.76401089758656
LINES 1 65
64 0 1 2 3 4 5 6 7 8 9 10 11 12 13 14 15 16 17 18 19 20 21 22 23 24 25 26 27 28 29 30 31 32 33 34 35 36 37 38 39 40 41 42 43 44 45 46 47 48 49 50 51 52 53 54 55 56 57 58 59 60 61 62 63
POINT_DATA 64
SCALARS NodeIdx int
LOOKUP_TABLE default
0
1
2
3
4
5
6
7
8
9
10
11
12
13
14
15
16
17
18
19
20
21
22
23
24
25
26
27
28
29
30
31
32
33
34
35
36
37
38
39
40
41
42
43
44
45
46
47
48
49
50
51
52
53
54
55
56
57
58
59
60
61
62
63
