# vtk DataFile Version 2.0
Vessel Segment
ASCII
DATASET POLYDATA
POINTS 64 float
7.9369053249239805 13.246677823749673 -9.536741304060921
6.994340521876497 13.36358499360635 -9.978369040844338
6.084291478906498 13.262222439830627 -10.311651783019679
5.129328142062553 13.038655849630983 -10.599203484362478
4.1922193344580005 12.719290042863886 -10.818244750133355
3.2684593177747354 12.329444222134406 -10.97173750383086
2.3619295920792216 11.880863263289848 -11.05004263379916
1.4817642731952538 11.3769321265131 -11.03352548647076
0.6496327783617107 10.813749661938388 -10.895774187516277
-0.09600126425575586 10.184126493362086 -10.620487829060304
-0.7139173721855055 9.482037330370993 -10.228631244918574
-1.1840638939126213 8.702902297357527 -9.780968510394194
-1.5120081558853509 7.84343257886196 -9.35402802229538
-1.71084023917266 6.9090830123475 -9.01374127377021
-1.7820375744306947 5.921913544601258 -8.793023688966459
-1.7155768189233276 4.916158057504002 -8.680919207525413
-1.4976274807781451 3.926688117127317 -8.636223050481885
-1.1161180009078175 2.9877371109093818 -8.60318269913439
-0.5680756571889527 2.1382918437441973 -8.525275442532344
0.12916505659289607 1.4223546599901937 -8.355264432690431
0.9320191905880966 0.8761387683080074 -8.064281839370098
1.7797189531835724 0.5126429262842697 -7.643525916099542
2.6089128579629364 0.3261849476783404 -7.090725315119618
3.343918965602012 0.3064274278608755 -6.393506341664034
3.8402549138221636 0.4432332436038057 -5.522001235586916
3.818131078549105 0.6674985705037624 -4.5403732887798585
3.285725745581573 0.8081793186508434 -3.6903952184942033
2.5588028301882306 0.8135940086315825 -2.983561859116126
1.800879821903872 0.7124597239800237 -2.31674506431494
1.0869980088565716 0.5300161789735072 -1.6195532410663047
0.4725141136078086 0.2848500037781865 -0.8508990101716994
0.0 0.0 0.0
-0.32533648555418326 -0.2941932603152106 0.9145192819931324
-0.5324200324671892 -0.5692950866808417 1.8686771718609299
-0.6582384682678248 -0.8037989091654236 2.847708206917794
-0.7336777819316724 -0.9802715438798505 3.843873521918721
-0.7805236636988419 -1.0820990109097661 4.852103731395029
-0.8106696208016815 -1.0906464067608608 5.866097004885441
-0.8261570237881705 -0.9847309069509987 6.874779094583438
-0.8194824041967929 -0.7447415356612341 7.860201224904901
-0.7783817619057102 -0.36103110479552186 8.798067934241262
-0.6949425564754578 0.15910179619003245 9.664727249189701
-0.5731710926069125 0.7900333884721504 10.449564288113443
-0.4268773881045927 1.5001879186353373 11.159080652695913
-0.2725795584917076 2.2649800546864505 11.807579412504362
-0.1238015203523341 3.0695574429537094 12.40741964907198
0.009540589342339178 3.9057878589029658 12.966238431519963
0.12076823680378222 4.767731745060383 13.489708486346599
0.206533785029018 5.648959551635295 13.985185837298644
0.2670104941115114 6.540110021100846 14.46646953995747
0.3039614584749389 7.429420829041553 14.953452272886521
0.3185285038040866 8.30118168874387 15.472179897516991
0.3096736457066639 9.129231632541826 16.058120980461563
0.27299946032822864 9.864449802597722 16.755566249715702
0.20068115428412037 10.415068600308182 17.60304013946919
0.08846260781048812 10.66759038139526 18.57697605982181
-0.054554241136576954 10.604164100110243 19.578146269421115
-0.21514181007359662 10.322553982620702 20.53913137911643
-0.3856318239693163 9.91991108801898 21.45461225179907
-0.5618084357667433 9.45777122698685 22.34024025862581
-0.7402187865399631 8.977925620961823 23.215644743910925
-0.9176018263515388 8.519253307553294 24.11218417318417
-1.0793882605953578 8.139009440063646 24.99495122182078
-1.2190133260886737 7.9482328619591875 26.01511159668284
LINES 1 65
64 0 1 2 3 4 5 6 7 8 9 10 11 12 13 14 15 16 17 18 19 20 21 22 23 24 25 26 27 28 29 30 31 32 33 34 35 36 37 38 39 40 41 42 43 44 45 46 47 48 49 50 51 52 53 54 55 56 57 58 59 60 61 62 63
POINT_DATA 64
SCALARS NodeIdx int
LOOKUP_TABLE default
0
1
2
3
4
5
6
7
8
9
10
11
12
13
14
15
16
17
18
19
20
21
22
23
24
25
26
27
28
29
30
31
32
33
34
35
36
37
38
39
40
41
42
43
44
45
46
47
48
49
50
51
52
53
54
55
56
57
58
59
60
61
62
63
