# vtk DataFile Version 2.0
Vessel Segment
ASCII
DATASET POLYDATA
POINTS 64 float
8.833325159285392 9.571259567158215 -9.131291990805575
7.8561985724979415 9.809003540227213 -9.427887757351103
6.914064478189883 9.93833926819125 -9.643834614974422
5.910744010191677 9.962987431422427 -9.82279951744769
4.912485135115452 9.835264115495825 -9.949482081980431
3.949795748787991 9.525008948747532 -10.01542286964644
3.0676427696312984 9.025985266684888 -9.998921382058604
2.2918535740224057 8.384859877337197 -9.87558238131568
1.5992343201299202 7.680686609169268 -9.644566483014726
0.942976323221716 6.9722685048339965 -9.333532605682922
0.28684756703201647 6.282270678196911 -8.983079166092011
-0.3708311850147398 5.585909007394805 -8.648748006496799
-0.9667514977267565 4.802271626219723 -8.407033438665012
-1.322123683431456 3.8588151547809075 -8.338717507108317
-1.3402264331698253 2.8459744798713786 -8.371105177274984
-1.1561422649610231 1.8494799515904792 -8.334981503640243
-0.8844543037924252 0.8919243738805226 -8.14183930002237
-0.5687390540844112 -0.0030828752255219 -7.784555700167777
-0.20657156328410803 -0.8229442452590037 -7.309723521567035
0.2192088824022633 -1.5689705095099467 -6.77015117256229
0.720618664125634 -2.2435115351383126 -6.202205978809382
1.2991817971753228 -2.8418555046812233 -5.622358467428956
1.9423305575396606 -3.3454612983522343 -5.021003756203982
2.6190218603035618 -3.706207165508612 -4.357859537843302
3.245665798423778 -3.811296807285205 -3.5697028836501334
3.594100148355036 -3.495373573793442 -2.6808171788189754
3.5059750855691463 -2.8541979317908637 -1.9047289126101865
3.103068633961973 -2.1317703633674507 -1.3202442717953013
2.498491709896514 -1.4420733923805458 -0.8883775233602289
1.7532443832470876 -0.837148159565334 -0.5613257902203767
0.9083215144951193 -0.3480604852863994 -0.28668542558694826
0.0 0.0 0.0
-0.9220109861857976 0.17804011115828466 0.38163430127977604
-1.7622590903347286 0.16009544018706418 0.9463777346018648
-2.386758327727528 -0.030604134770581215 1.7197275118365472
-2.741173821322122 -0.3114566770049758 2.626460755621362
-2.8840510484782778 -0.6190429119351536 3.5821524809878103
-2.898861882092438 -0.9365379041925123 4.545594456963667
-2.8486086349892568 -1.2675400616983779 5.503315506011522
-2.7739714972086844 -1.6152616455983089 6.453504656595206
-2.697178377673217 -1.9703077631401857 7.400886618720688
-2.628780978485677 -2.302611688365111 8.357066926028986
-2.576812325080789 -2.551811041622416 9.338896470269704
-2.5570389351023044 -2.6012437546615104 10.350560962984636
-2.584232282735108 -2.2974366559889354 11.314264839496959
-2.612668467142531 -1.665756203066531 12.106065085774354
-2.5618314959193156 -0.8883447881615925 12.75534777158928
-2.3940807277994463 -0.07537529476846505 13.338154289623363
-2.116424799598007 0.7264126346646332 13.894166417040225
-1.7605103788548973 1.502930655499364 14.441531551043374
-1.3593394988524614 2.257094632368763 14.988924055414532
-0.9369951012410627 3.00070614447671 15.534944388313091
-0.507783390024174 3.750385596795736 16.067071946413268
-0.0800697851007329 4.522868099781246 16.566683439402627
0.339255370283055 5.329380841963205 17.01720912158635
0.7427434379932517 6.171588646257724 17.413665799601205
1.1247519136123996 7.041061901165693 17.770716598274056
1.485606533454324 7.920262261669441 18.125932865599562
1.8299664314468052 8.782393775031123 18.53489536220491
2.1584322893887213 9.58569032743486 19.059219419148313
2.460618911891708 10.274259335299131 19.739478939084997
2.7222532753323514 10.806969698234811 20.56747818762404
2.9303273233696774 11.172138815445036 21.447534973698268
3.1072022027756994 11.414925850405119 22.45193949996379
LINES 1 65
64 0 1 2 3 4 5 6 7 8 9 10 11 12 13 14 15 16 17 18 19 20 21 22 23 24 25 26 27 28 29 30 31 32 33 34 35 36 37 38 39 40 41 42 43 44 45 46 47 48 49 50 51 52 53 54 55 56 57 58 59 60 61 62 63
POINT_DATA 64
SCALARS NodeIdx int
LOOKUP_TABLE default
0
1
2
3
4
5
6
7
8
9
10
11
12
13
14
15
16
17
18
19
20
21
22
23
24
25
26
27
28
29
30
31
32
33
34
35
36
37
38
39
40
41
42
43
44
45
46
47
48
49
50
51
52
53
54
55
56
57
58
59
60
61
62
63
