# vtk DataFile Version 2.0
Vessel Segment
ASCII
DATASET POLYDATA
POINTS 64 float
5.304241168310854 12.142869904917292 -7.634754756940776
4.687321451049487 11.88489987858227 -8.439793900510457
4.053175020338518 11.559275524180155 -9.102019296547216
3.335891106590332 11.117915581480661 -9.686565472114383
2.5956573033607553 10.556407746688237 -10.088080611144669
1.8708747202446068 9.871869112928573 -10.271708509703037
1.2196859485586806 9.095917519524757 -10.231116043258154
0.6748873023246543 8.26824211828845 -10.015044205534682
0.2369277613389412 7.411699248692917 -9.693235930591706
-0.10671275833638112 6.528791363761568 -9.330491078071285
-0.36415323840979 5.610500765658341 -8.984618737261501
-0.5288352888614843 4.648694862820296 -8.707761959432979
-0.5777800172027205 3.6509959347742416 -8.53236007425233
-0.48386721359639845 2.6443764639408838 -8.451639717652482
-0.22796118773091878 1.6632328867563135 -8.431797614680617
0.1967916275401161 0.7423353324520896 -8.425192160150624
0.7846422821094293 -0.08278291567169549 -8.381587121752997
1.513823395149528 -0.7768905064537177 -8.26049383428838
2.3455811418863886 -1.3122992464559189 -8.037599887299923
3.2299869672640766 -1.680374086190721 -7.705028526118832
4.117319098392737 -1.8889073132223155 -7.26031930740202
4.952729517967575 -1.9449964129325732 -6.688938970939363
5.6351289367248 -1.833851383444261 -5.948979948756141
5.838614680936579 -1.5038367530341432 -5.0224877825194065
5.338174190667512 -1.0841731970235482 -4.247415433673016
4.560479617239753 -0.7251167074122803 -3.7064047527767645
3.7101885033019677 -0.42007854167447795 -3.2442218837085477
2.8481749535336713 -0.1665259883238842 -2.7731348030071183
2.009782776831641 0.02451187855002492 -2.234939880915462
1.2310128046463322 0.13075442816732982 -1.5939494314099922
0.5510310682535632 0.1271460290663313 -0.8416823285644629
0.0 0.0 0.0
-0.4117102380183226 -0.24437827070898444 0.8940892174913349
-0.6883608761812958 -0.5848801655492116 1.808568541651327
-0.8403969816742639 -0.9888857750073409 2.7265186501359167
-0.8790724869786215 -1.4161044384863049 3.6457911169399115
-0.8151971445458281 -1.820839462658533 4.573848201146064
-0.6620767498136251 -2.152066613273227 5.520356896820488
-0.439737678868645 -2.357493267341782 6.488316857564259
-0.18054632676186472 -2.3952135480793926 7.4681002455804935
0.0738731429756533 -2.247659008256805 8.438592692996464
0.2823183803986013 -1.9253923335342509 9.377372760866324
0.4148559081277113 -1.4566540110174784 10.266922741782643
0.4581186859704252 -0.8742650119875583 11.096256863657661
0.41682443280766257 -0.2067789322873853 11.859007992007022
0.3094916086800515 0.5255160118029636 12.552797777843614
0.16211852214200956 1.3108373732300953 13.177890493644759
0.004382688260884633 2.1432703764986143 13.735963273806442
-0.1351287926270865 3.0176593253577026 14.23118339611022
-0.23503346803540237 3.9246685809836945 14.674567960772471
-0.2877730994107548 4.850045040339964 15.087194257809212
-0.30134628097651334 5.776494077295751 15.500661956385647
-0.2939537259054992 6.685891212182078 15.95044438296796
-0.2872183336313144 7.556926034469586 16.470342257680528
-0.30207227352533383 8.360611464993104 17.088987299100058
-0.3537543800609226 9.055100055861601 17.826261878174122
-0.4476196515411691 9.584128310477308 18.686106575974115
-0.5741931973768026 9.888125790867331 19.644691587662557
-0.7092888958594453 9.932652265049928 20.648309900621154
-0.823865576919346 9.732593487754656 21.635793310089614
-0.8962804085987232 9.339874330305603 22.566118434487734
-0.9099317848518392 8.792753984799736 23.433146601027993
-0.8659994793233896 8.179085385669097 24.18708231938225
-0.7331511387815173 7.429539407729329 24.90518805975718
LINES 1 65
64 0 1 2 3 4 5 6 7 8 9 10 11 12 13 14 15 16 17 18 19 20 21 22 23 24 25 26 27 28 29 30 31 32 33 34 35 36 37 38 39 40 41 42 43 44 45 46 47 48 49 50 51 52 53 54 55 56 57 58 59 60 61 62 63
POINT_DATA 64
SCALARS NodeIdx int
LOOKUP_TABLE default
0
1
2
3
4
5
6
7
8
9
10
11
12
13
14
15
16
17
18
19
20
21
22
23
24
25
26
27
28
29
30
31
32
33
34
35
36
37
38
39
40
41
42
43
44
45
46
47
48
49
50
51
52
53
54
55
56
57
58
59
60
61
62
63
