# vtk DataFile Version 2.0
Vessel Segment
ASCII
DATASET POLYDATA
POINTS 64 float
5.155275851149618 11.894089313617446 -8.038671183664887
4.186037452420575 11.64139396764092 -8.346511981578018
3.3159331321493175 11.284573316950956 -8.611205292031862
2.466668390803473 10.762723224534327 -8.814365456364778
1.7383492819061457 10.059818511372738 -8.855458417778811
1.1851908032988479 9.232022436656692 -8.669750258157649
0.7643436859725412 8.38363328715146 -8.306847950883334
0.38077397236643024 7.555338837326958 -7.863933254436315
-0.0256472281118079 6.738495576059723 -7.420167764499422
-0.4580035323282265 5.9045448448328655 -7.037143562309503
-0.8648922835649587 5.018021295786699 -6.7597421556024955
-1.148729665175758 4.05673345340834 -6.60932668160534
-1.1686285467925843 3.045120743375224 -6.586456053796683
-0.8149302744937281 2.100085967000942 -6.651308398786948
-0.1442691740716138 1.3455762191644554 -6.728449510945519
0.7077211061003121 0.7976821178264244 -6.763915933487646
1.643829416751529 0.408656376085932 -6.734187021208646
2.6093788057103877 0.11716889832713025 -6.626058561764455
3.571879358643499 -0.13178245787110704 -6.424544760923653
4.504688777259562 -0.3776851087176841 -6.1111883522737145
5.37690629919328 -0.6403820053959733 -5.66563190532445
6.143165752084815 -0.9154846349990278 -5.0617524329438055
6.708461142619124 -1.1566592932431443 -4.255967528006968
6.792022834499506 -1.192533689231676 -3.258584224748769
6.239607030590588 -0.8850166839869088 -2.477688372136099
5.437639502730631 -0.4522910413784058 -2.036149695537768
4.55528122961887 -0.03279230916687441 -1.7631254183698886
3.623668272681598 0.305176708850666 -1.5468301267843285
2.659529608682576 0.4986540387636491 -1.2997813306994748
1.7044233282665644 0.5019924985277072 -0.9606630110223363
0.8100834498966621 0.3209026578313163 -0.5189501958027369
0.0 0.0 0.0
-0.7272884556402213 -0.4150630459894213 0.5723993397076655
-1.37999619986049 -0.8869047868345872 1.1891529105362286
-1.9643734371542663 -1.3796659759800096 1.8561542695029776
-2.480421079903669 -1.8552214171262016 2.5886607730935514
-2.917590828311476 -2.271653909060096 3.403523117474434
-3.251791633343125 -2.583027641256329 4.308626551968164
-3.448036252502245 -2.7384671196765478 5.290622257150317
-3.475711074793154 -2.6954241340597935 6.302418378463873
-3.3347920576882917 -2.444952983123104 7.274042890000129
-3.0651057530911068 -2.0228443660460034 8.155472707600623
-2.7192243840828034 -1.482054836728817 8.940724524725484
-2.3380647035376554 -0.8653246337688116 9.650259797461004
-1.9468905618531254 -0.1987562243298549 10.307507705972625
-1.5598501910278502 0.5075651649407801 10.924440112435684
-1.1840401644955052 1.2585509841844635 11.493628017737024
-0.8245907623191975 2.0690054858645546 11.986399846708961
-0.4898244206057676 2.94783324055569 12.366004823029774
-0.19087512814050797 3.882726508966387 12.621756571941571
0.06645525963098985 4.848827847603028 12.794154236812764
0.28351046581714673 5.826956414705963 12.953832511671504
0.46288989309854967 6.801293273230528 13.171845511023138
0.6032479615875291 7.746756819877262 13.510684012761317
0.6970512078709556 8.617308565132282 14.021367758230738
0.731182602893076 9.338223877438098 14.732075700866947
0.693817269106124 9.814767466458761 15.624469717399897
0.5876263520754426 9.990641178275183 16.61611530256593
0.4316054788344904 9.912580293440227 17.614801888472662
0.2430484374140969 9.68236077496238 18.584396982616685
0.028634243107506657 9.390581229930437 19.532708294598436
-0.21355810889089816 9.116252931061885 20.482531455734073
-0.4752080982841726 8.941305566506351 21.410087053602997
-0.7912145211254826 9.026055244418822 22.403263777535408
LINES 1 65
64 0 1 2 3 4 5 6 7 8 9 10 11 12 13 14 15 16 17 18 19 20 21 22 23 24 25 26 27 28 29 30 31 32 33 34 35 36 37 38 39 40 41 42 43 44 45 46 47 48 49 50 51 52 53 54 55 56 57 58 59 60 61 62 63
POINT_DATA 64
SCALARS NodeIdx int
LOOKUP_TABLE default
0
1
2
3
4
5
6
7
8
9
10
11
12
13
14
15
16
17
18
19
20
21
22
23
24
25
26
27
28
29
30
31
32
33
34
35
36
37
38
39
40
41
42
43
44
45
46
47
48
49
50
51
52
53
54
55
56
57
58
59
60
61
62
63
