# vtk DataFile Version 2.0
Vessel Segment
ASCII
DATASET POLYDATA
POINTS 64 float
4.5863576258254515 9.602495729459907 -9.010123427628583
3.7439539880129327 9.133715077091377 -9.408956978314897
3.0084068388841567 8.562416246066933 -9.700266894095119
2.296733523202781 7.845826278586684 -9.881470402825206
1.6806865823522037 7.04360442906748 -9.87386314904512
1.1470331115201733 6.204848164145547 -9.671725388873606
0.6826794156116179 5.37729188955921 -9.31325622385371
0.2632800491884419 4.571413518387165 -8.861643762380837
-0.12525666426880702 3.7719553463212443 -8.372431195470835
-0.47634318077427096 2.951262243958947 -7.890177616771775
-0.7541503513673271 2.0777435473807184 -7.45576700969737
-0.8775430674781886 1.130230356502048 -7.116636982212619
-0.7218084227515759 0.14753549153153403 -6.927010624759967
-0.22590098462296826 -0.7349915275197854 -6.895454737920953
0.5270983104598169 -1.410994563581536 -6.955635523460941
1.4215070287259326 -1.8836507757192693 -7.02736278580252
2.3862412247178315 -2.195739681072495 -7.054691225951704
3.380883427973894 -2.3862926184586812 -6.996943522558945
4.373908887124561 -2.4860543323340596 -6.815865538278766
5.32494706958311 -2.520056861045878 -6.465140143630364
6.157525194787554 -2.510825282171292 -5.8887799746252725
6.657178340007119 -2.4765985844470304 -5.002436659934408
6.340298304336742 -2.42066512455831 -4.063503288037619
5.455636449555784 -2.3315228281285987 -3.5798803040325375
4.462216617684764 -2.195134340735016 -3.430887558539686
3.4675103129476055 -1.9949553563589897 -3.4322973142922844
2.4964219368053233 -1.70233408490385 -3.4481359989795757
1.5866992850917865 -1.282105458986622 -3.2905093378483357
0.8781185128394327 -0.7978666189490395 -2.7568642029017085
0.44055632754275637 -0.4036453980082522 -1.9320434524246255
0.17433769737861288 -0.14126547340808623 -0.9893106224880992
0.0 0.0 0.0
-0.12169176039012164 0.025115278234063353 1.0067812899019541
-0.21261266080439653 -0.06335731914040776 2.0132441736937126
-0.28809451545776527 -0.25329129561662683 3.006957599351227
-0.3617899091173609 -0.5178944021227271 3.9836806248217496
-0.44326144433635184 -0.8206987033371217 4.948546963038511
-0.5342822860782258 -1.1285154500922894 5.911070493672093
-0.6291239388334904 -1.4173385432875318 6.879033841757149
-0.7171252582385231 -1.668237844235508 7.858175556017666
-0.7848205296796172 -1.8611253984422556 8.851938387399185
-0.8163509725051032 -1.9670121759065555 9.860354164151671
-0.7973059391878653 -1.9482202494677014 10.87430670066829
-0.7213669373342046 -1.772004205887254 11.870177464372624
-0.5986546380859894 -1.431911452767181 12.81786397372119
-0.45354963905564355 -0.9496099337409343 13.69835107323559
-0.3142835041799267 -0.3546600816066661 14.508135298068796
-0.20607434657490617 0.3299659631880636 15.248886437616532
-0.14957079804744045 1.0893109158838263 15.919160240561851
-0.15931123971965908 1.911554888894091 16.513242463326147
-0.23896551245949127 2.7832716409435836 17.02595760771528
-0.37586838099524117 3.6892361613961793 17.461512387774814
-0.5427011322176949 4.616124390873701 17.83897977621054
-0.7087787266547178 5.554683495026713 18.18663447893741
-0.8522866562533681 6.4966840464591336 18.53516758307549
-0.9657624363339472 7.429926231140672 18.91659799889784
-1.0524581251607426 8.334840757088886 19.366984987757796
-1.1195298059348509 9.176277900780915 19.9294065681521
-1.1784548161870076 9.886623200239734 20.65049847536212
-1.2525251504741262 10.351524305050619 21.54767024751146
-1.3758624791889744 10.462910522948933 22.544737849509847
-1.5804676811663652 10.20823385293369 23.515479312248402
-1.8417826408719882 9.735994161471433 24.329056986600232
-2.1908340057205353 9.061181512197301 25.043901255260575
LINES 1 65
64 0 1 2 3 4 5 6 7 8 9 10 11 12 13 14 15 16 17 18 19 20 21 22 23 24 25 26 27 28 29 30 31 32 33 34 35 36 37 38 39 40 41 42 43 44 45 46 47 48 49 50 51 52 53 54 55 56 57 58 59 60 61 62 63
POINT_DATA 64
SCALARS NodeIdx int
LOOKUP_TABLE default
0
1
2
3
4
5
6
7
8
9
10
11
12
13
14
15
16
17
18
19
20
21
22
23
24
25
26
27
28
29
30
31
32
33
34
35
36
37
38
39
40
41
42
43
44
45
46
47
48
49
50
51
52
53
54
55
56
57
58
59
60
61
62
63
