# vtk DataFile Version 2.0
Vessel Segment
ASCII
DATASET POLYDATA
POINTS 64 float
6.513307923619008 11.62813493438118 -5.7504999136255135
5.606746055822716 11.376498705007783 -6.201896123543411
4.709499798676766 11.155695786543907 -6.543958741385527
3.7661601526709476 10.899490815499389 -6.813720099637409
2.82105317356573 10.569603038540945 -6.979089462472493
1.9156012140827081 10.115066593238813 -7.004218580298746
1.123008189083326 9.502862547371347 -6.854139575774949
0.5092561574153088 8.759671932562963 -6.542046878863832
0.06316376432649147 7.944452454349489 -6.136122906321261
-0.2782846159948815 7.088457757112867 -5.7120533384351555
-0.5726876140306699 6.191834227965424 -5.34015299045307
-0.845584834061743 5.247177141794403 -5.0925964461464
-1.078570961785663 4.262745044946052 -5.0298209113321475
-1.2197853894662187 3.2672252196187768 -5.157754930673965
-1.2180036148504059 2.2874632021423036 -5.4182202143553
-1.038934788553213 1.337795068808789 -5.724577653219975
-0.6616145920653401 0.43521146872777106 -5.989037968836594
-0.08617699579399536 -0.3857120986205578 -6.13477182241878
0.6506949648679194 -1.080634737018011 -6.1157903708439045
1.4858846638622387 -1.6240786759973025 -5.931021475666984
2.3617235538281562 -2.015656058738774 -5.603552895020648
3.2358248040572337 -2.2612208815136157 -5.152570577752615
4.069320029420895 -2.3567275312707534 -4.58364071092486
4.799026962419362 -2.2732220304757464 -3.8863697339139276
5.257914273687923 -1.9339459065715134 -3.054466411174712
5.139911984959697 -1.3383162652125666 -2.2567029871045126
4.539186332068912 -0.739241482812201 -1.7058052645509814
3.7294807457894104 -0.2604567649343193 -1.3286118374533755
2.81938337776122 0.07231724936162186 -1.0303623897922118
1.8605319472123343 0.23421060303556407 -0.7436287962275455
0.902649849539044 0.20484764290810936 -0.4133972546769352
0.0 0.0 0.0
-0.8138113511744716 -0.3183003087015706 0.5145010896903631
-1.5351173184197535 -0.6751819390305549 1.1317058562292888
-2.1689188489254927 -1.012035221252952 1.8482082146817105
-2.7111478008956116 -1.2857245876027634 2.660219376098872
-3.143535724531303 -1.4592785437739801 3.5605988966777136
-3.4339249119173396 -1.4969936987221233 4.53083604077837
-3.5474890226929694 -1.369818559546774 5.52945363967733
-3.4695987459479705 -1.0710917336756862 6.494374971033903
-3.2209364177074926 -0.6222913729782114 7.368292024478276
-2.845579956117525 -0.057914750585540554 8.12216872834776
-2.389879929552874 0.5924304735732382 8.752834815842883
-1.892641153751461 1.310828782172779 9.267938161755078
-1.3855187799447741 2.0877109095214954 9.677955889274816
-0.8965506700602662 2.917441747279546 9.996337545406524
-0.45249430416631714 3.7955021013539256 10.243078264597397
-0.07852204516502087 4.715849176200962 10.448366281900633
0.2072371885368034 5.668051647848195 10.64984641287892
0.40590285218269223 6.635010146041556 10.88343242255175
0.5436483751396363 7.596241441174651 11.17697225444137
0.6579549747386787 8.530869081235323 11.554293369267848
0.7830439522991456 9.411350230419224 12.041718486849348
0.9401073571499163 10.193724987201366 12.666785489469264
1.1276546079736138 10.812312372174576 13.446953011418799
1.3132460045335246 11.19371886593449 14.366509441194925
1.4398671761544923 11.290158643486262 15.366316501286658
1.453679023022323 11.106855492858521 16.362140824178795
1.331657479396828 10.704065032920735 17.283792778392634
1.0849793128945344 10.166270108706893 18.107208370002667
0.73964373693944 9.572360070046123 18.854101852785217
0.32326806777999073 8.995424121836221 19.57677530057957
-0.12318933243655243 8.536606767335515 20.33294345597607
-0.5298428162409891 8.435459196019055 21.280214923222264
LINES 1 65
64 0 1 2 3 4 5 6 7 8 9 10 11 12 13 14 15 16 17 18 19 20 21 22 23 24 25 26 27 28 29 30 31 32 33 34 35 36 37 38 39 40 41 42 43 44 45 46 47 48 49 50 51 52 53 54 55 56 57 58 59 60 61 62 63
POINT_DATA 64
SCALARS NodeIdx int
LOOKUP_TABLE default
0
1
2
3
4
5
6
7
8
9
10
11
12
13
14
15
16
17
18
19
20
21
22
23
24
25
26
27
28
29
30
31
32
33
34
35
36
37
38
39
40
41
42
43
44
45
46
47
48
49
50
51
52
53
54
55
56
57
58
59
60
61
62
63
