# vtk DataFile Version 2.0
Vessel Segment
ASCII
DATASET POLYDATA
POINTS 64 float
6.516873125927927 7.333660789627039 -7.783910312841792
5.822123173738509 7.550711129327657 -8.537277049635021
5.06603507324944 7.611000175619517 -9.153406929055128
4.176141091694794 7.49389129812956 -9.629012648473843
3.2361250755388267 7.174461586507876 -9.826752889302947
2.3350757273336775 6.720771057334873 -9.73366991848726
1.5075175541006796 6.2173441019750895 -9.43379786473601
0.7395181417594924 5.705392264448069 -9.012917839022347
0.013062629633714863 5.185613812213884 -8.531847220778188
-0.672434165841724 4.623629767511824 -8.038642528004878
-1.274677401752532 3.9345271995554265 -7.602922675156995
-1.625158734960382 3.0147902191304867 -7.384445462384383
-1.6073602045789628 2.004135914773831 -7.448126780549827
-1.3817663756210086 1.0302057522078036 -7.618868494551308
-1.051145990811606 0.0845727232162604 -7.778597834939696
-0.6336268356882823 -0.8354584926968084 -7.867771101102998
-0.11727691670588908 -1.7077399039611534 -7.843645434652877
0.505019629416718 -2.4909505693112006 -7.679259804411905
1.2136949930618894 -3.150089940369229 -7.377280319494422
1.9710012441996283 -3.6805139884922893 -6.960685672067805
2.7398791980004793 -4.096355333447901 -6.446399185432109
3.4860244308336177 -4.397323937112693 -5.829204993285444
4.152619325379743 -4.539984619805847 -5.07944132395113
4.584078526271764 -4.388421303480185 -4.179685322312896
4.544741793466831 -3.8411907456450747 -3.3370270667854856
4.149750787188727 -3.1111484533623566 -2.757005536971803
3.6081621442577 -2.3597900060231973 -2.3437203859803217
2.9904340592844574 -1.6378340822419957 -1.988226161227232
2.310779984491371 -0.9840634048850108 -1.614687445248536
1.571044834428635 -0.45132710303210305 -1.1708243220081795
0.785812562348972 -0.10676501677319267 -0.6307149353507675
0.0 0.0 0.0
-0.7258805042490404 -0.120312040441308 0.6971818746463369
-1.3520491505150212 -0.39866853122695 1.4446343816915415
-1.8662385318377972 -0.7542156481091776 2.243394861421541
-2.266642736164499 -1.1180066289217412 3.101354973019885
-2.550119459731595 -1.4330318766735395 4.022615422668878
-2.707944283694243 -1.657145324393854 4.998949988848442
-2.729229838990112 -1.7640257086735225 6.006945878576516
-2.6102265498489046 -1.7419058274752863 7.013588717353612
-2.3645260176948475 -1.590899097838969 7.985731330356009
-2.0265067272707964 -1.3176485951761474 8.902011988062116
-1.6406350852349205 -0.9273902216785144 9.754976511824895
-1.253299398140061 -0.421066934166446 10.543839658401222
-0.9038790871068092 0.19650698667054073 11.268549124310436
-0.6131124794570987 0.9057297576481541 11.932910957543172
-0.38066124704216076 1.6743724013248618 12.552863435427424
-0.19589372252041518 2.470602034318514 13.153868502651985
-0.04637135295030143 3.2669942387209345 13.764417021636964
0.07557105292698024 4.041003348027271 14.408945048362222
0.17026825684321473 4.774189462395645 15.103652349495563
0.23082989727828288 5.45277160312094 15.85529435535194
0.24872895752846674 6.066883448460522 16.66248586413043
0.22208540297240909 6.6096963699183435 17.519039382829128
0.16013730403863968 7.076967643640837 18.417318390582
0.08102646944766176 7.462900030299857 19.352150717525415
0.004492701429292938 7.754923675324597 20.32050688635912
-0.05640736671524968 7.929089263875643 21.317860136178954
-0.0997176475665345 7.956887499169127 22.330680473623943
-0.12846827823278487 7.824960711972194 23.335620440168466
-0.1439786508599669 7.545806168108822 24.311108945040772
-0.1449126052180914 7.148783787039588 25.248649920005004
-0.13036017851562623 6.691062602310309 26.11160892970419
-0.09227371231296728 6.1362974996050905 26.999963750913665
LINES 1 65
64 0 1 2 3 4 5 6 7 8 9 10 11 12 13 14 15 16 17 18 19 20 21 22 23 24 25 26 27 28 29 30 31 32 33 34 35 36 37 38 39 40 41 42 43 44 45 46 47 48 49 50 51 52 53 54 55 56 57 58 59 60 61 62 63
POINT_DATA 64
SCALARS NodeIdx int
LOOKUP_TABLE default
0
1
2
3
4
5
6
7
8
9
10
11
12
13
14
15
16
17
18
19
20
21
22
23
24
25
26
27
28
29
30
31
32
33
34
35
36
37
38
39
40
41
42
43
44
45
46
47
48
49
50
51
52
53
54
55
56
57
58
59
60
61
62
63
