# vtk DataFile Version 2.0
Vessel Segment
ASCII
DATASET POLYDATA
POINTS 64 float
4.975832650315403 7.3366268492782165 -7.091902325051291
3.9620172250618677 7.160711861772089 -7.12035674744564
3.024927446008935 6.863511848348863 -7.304104962755988
2.129112416392568 6.4613223130695525 -7.551252635815369
1.275843534049337 5.96950879071916 -7.793719553423295
0.45677644669295087 5.396551554349947 -7.964870893165327
-0.32161094123332495 4.748099145410863 -7.9773342065151915
-1.0068055309136636 4.045910081441759 -7.730245569297766
-1.5197850307876928 3.336940110099325 -7.221175095146081
-1.8606281309944335 2.6256270506016794 -6.583932735333368
-2.084037444890122 1.8557506387362723 -5.963044018032317
-2.202948733635874 0.9787672167985192 -5.4700730838721885
-2.152254663289717 0.010097713268545703 -5.1821826524904875
-1.815765112138291 -0.9384294260560287 -5.091231334395403
-1.1349497224285898 -1.683207284322556 -5.066956114196346
-0.21821856471947615 -2.094636304847263 -4.95916595940229
0.7665987004979011 -2.2383821415374574 -4.7667478029460195
1.7632834438201885 -2.2739423453429817 -4.580803030394435
2.769574705462167 -2.3224766220003317 -4.462452173204707
3.776259655127146 -2.4157109119651325 -4.377105630572629
4.771473738221977 -2.5219942439085328 -4.214261670785078
5.707103190657842 -2.590012957312083 -3.834875743065119
6.400755870654215 -2.5360638908102686 -3.109050811418535
6.526478412610053 -2.2563012624948127 -2.156474502861561
6.1183596951192465 -1.7869406488986572 -1.3629117186162842
5.451675431148962 -1.225687247180316 -0.84876124605541
4.669032346101405 -0.6403596371937108 -0.5816378109306053
3.8130477428600162 -0.10432031029610245 -0.4943121380491407
2.8809536210417566 0.2936096874049099 -0.4960782215504532
1.8824775598194383 0.460302002530602 -0.48006597607689694
0.8868309296023857 0.3496945802350756 -0.33839005877828643
0.0 0.0 0.0
-0.6831682374536883 -0.49488691451383177 0.5582253474246116
-1.104228832488293 -1.0111063666571827 1.3195027275466782
-1.2591814833727282 -1.4188782974991747 2.232445769807635
-1.2078251048304938 -1.61759432991956 3.223755013531229
-1.0555645350198988 -1.5505408753746512 4.22237552195052
-0.9179170675973686 -1.1911254950860972 5.158176770617243
-0.8725388456963659 -0.565985773763489 5.952866782479021
-0.9063137844046656 0.2339111526412937 6.574137953745058
-0.9568233827258376 1.1281471840614359 7.0496368973528645
-0.9673522152799026 2.073009509263695 7.418241807370465
-0.9096366684540811 3.041740422932729 7.71344540642561
-0.7898933939055366 4.015564227098763 7.971538183521498
-0.6341383125859827 4.980773379532264 8.242564247183244
-0.4586056208543008 5.918499509647263 8.586851046693265
-0.2627364143258231 6.796094915113429 9.055298279141883
-0.04792036030563454 7.575873024548105 9.666438301728844
0.16406465652221966 8.234454181288768 10.407391530908747
0.3266775301780219 8.754720178465723 11.261864769825232
0.3624920075073236 9.07990874654456 12.219363648879204
0.16151309543082112 9.06793971775608 13.206526656869453
-0.26479099951261836 8.669034020112893 14.030622765523223
-0.7605782033847851 8.055544833681886 14.667491750110187
-1.2248988051106022 7.358537962388224 15.23984137167038
-1.5938014733420227 6.641129279957036 15.854280737990107
-1.8231298506816471 5.9365720475370924 16.54631529365269
-1.92266497374929 5.2285871512843185 17.26575712315837
-1.9406016741507646 4.463099965648836 17.93071200171053
-1.9055037003243558 3.618245812660891 18.49040593031582
-1.802498962954331 2.7208657124017748 18.951563834377765
-1.5596587024038897 1.836087554048667 19.380228520746954
-1.041807810043066 1.14716487517606 19.88124998727987
-0.2409277040371424 0.9350978320296144 20.481876801605228
LINES 1 65
64 0 1 2 3 4 5 6 7 8 9 10 11 12 13 14 15 16 17 18 19 20 21 22 23 24 25 26 27 28 29 30 31 32 33 34 35 36 37 38 39 40 41 42 43 44 45 46 47 48 49 50 51 52 53 54 55 56 57 58 59 60 61 62 63
POINT_DATA 64
SCALARS NodeIdx int
LOOKUP_TABLE default
0
1
2
3
4
5
6
7
8
9
10
11
12
13
14
15
16
17
18
19
20
21
22
23
24
25
26
27
28
29
30
31
32
33
34
35
36
37
38
39
40
41
42
43
44
45
46
47
48
49
50
51
52
53
54
55
56
57
58
59
60
61
62
63
