# vtk DataFile Version 2.0
Vessel Segment
ASCII
DATASET POLYDATA
POINTS 64 float
6.322473661649023 15.571270775634934 -6.999371917219877
5.314997976663977 15.515507657025779 -6.746982898925667
4.407120789397523 15.173957112003025 -6.609597926898053
3.632130327076808 14.50865247647858 -6.605640710567179
3.13355454084931 13.636287746651957 -6.733426036801151
2.827353516919222 12.687619428295474 -6.922231770802081
2.629376424366945 11.711735300437333 -7.116707362145701
2.464741215583306 10.720618601628148 -7.257726892979356
2.2579697870034314 9.727667458351949 -7.262177581118984
1.9351814964499683 8.793751876189285 -7.038697865600096
1.489061834808804 7.995782724164907 -6.598966153921804
0.9785007223149736 7.303575128294374 -6.060863008118483
0.4519704868423058 6.630424360743105 -5.513984578994595
-0.045268761749528805 5.897899054623645 -5.018778992290413
-0.44059163483591557 5.044688771060745 -4.63936752580884
-0.6228215581458723 4.0702072935955025 -4.429233221252858
-0.5112078550610534 3.064230338428672 -4.3775127268190674
-0.12396397630484088 2.1277163672907746 -4.41159173785379
0.4553236358983681 1.2961816560332182 -4.454857040188927
1.148334743325452 0.5552618156772572 -4.458625254760827
1.9009417101790673 -0.1221676744247876 -4.396615148359882
2.676566781227923 -0.7595670734151323 -4.250409608079552
3.4440229853563062 -1.3734992991978032 -3.9980122336229424
4.160602236408394 -1.9701716417780382 -3.6033350644376845
4.728286912562056 -2.5390278572325604 -2.96685278142224
4.714888048056447 -2.8504803996656016 -2.038146166993002
4.047189350900683 -2.690095722497346 -1.2924597623911454
3.220952370699384 -2.2962435351032244 -0.8520489572438752
2.3842093153915047 -1.802899972705214 -0.5600408053831579
1.5639243442195614 -1.2436313904521163 -0.3512099937407526
0.7688740745063537 -0.6371854767443615 -0.1794799217682866
0.0 0.0 0.0
-0.7451785593092453 0.6441096474231431 0.24323422003465614
-1.463769132880622 1.2521239742562371 0.6211820842394034
-2.131888733055542 1.7555479055489938 1.194005514100854
-2.710320864991502 2.098985566992622 1.9526485391235804
-3.183842318720201 2.29304190411995 2.828415593971008
-3.5647036827111065 2.38978856694791 3.7636689616519625
-3.8684122076953873 2.4404628088008042 4.73035550558891
-4.102877333430317 2.485293709884864 5.716433838991426
-4.26976345780907 2.55379896741972 6.714858158086161
-4.368310427272034 2.665996475365274 7.7183402362961955
-4.397008092116171 2.8342334269296736 8.718380104954711
-4.352874470835376 3.0692375665186367 9.704316433117508
-4.225449744277651 3.3881247795288507 10.658812084719022
-3.9905767542933277 3.8177963575574254 11.547199748537773
-3.617666151544645 4.384757542882306 12.300106741890884
-3.0873834104265168 5.067895662488625 12.829978892657566
-2.422571470465962 5.784066916312147 13.097327393285175
-1.7327473822637964 6.49758789608959 13.30959136418392
-1.0880708336046525 7.202441350723835 13.652254419913003
-0.3783652414874477 7.817813434497953 14.032261105123823
0.3937090639024875 8.376377179736382 14.38415562830368
1.0517031132135228 9.075869487755266 14.705141765676531
1.518780921080414 9.932375741024957 14.983993557221693
1.8142947211192204 10.871562473956995 15.227545695750448
1.9845456745204173 11.846257460067555 15.451690551091247
2.0783107540510604 12.831223030792904 15.67639970209249
2.1376234115005874 13.813306983006452 15.923930424183636
2.203092418948815 14.780358814617603 16.22472519212638
2.319309925691241 15.706308782301614 16.61791520466287
2.5608969620974764 16.52650702753368 17.17980017075918
2.938720399171147 17.103129064858315 17.877326822386852
3.4794418137420338 17.376124187444063 18.72214014347818
LINES 1 65
64 0 1 2 3 4 5 6 7 8 9 10 11 12 13 14 15 16 17 18 19 20 21 22 23 24 25 26 27 28 29 30 31 32 33 34 35 36 37 38 39 40 41 42 43 44 45 46 47 48 49 50 51 52 53 54 55 56 57 58 59 60 61 62 63
POINT_DATA 64
SCALARS NodeIdx int
LOOKUP_TABLE default
0
1
2
3
4
5
6
7
8
9
10
11
12
13
14
15
16
17
18
19
20
21
22
23
24
25
26
27
28
29
30
31
32
33
34
35
36
37
38
39
40
41
42
43
44
45
46
47
48
49
50
51
52
53
54
55
56
57
58
59
60
61
62
63
