# vtk DataFile Version 2.0
Vessel Segment
ASCII
DATASET POLYDATA
POINTS 64 float
8.6156762922547 10.32322471478671 -10.931534121700874
7.706963259238312 9.904713731532809 -11.24139988563596
6.856846348586783 9.475825691805868 -11.438718667977474
5.9553833921152535 8.996983878231696 -11.533015900388216
5.066795147823559 8.51530673016901 -11.469860033355955
4.191462990387173 8.057414607314966 -11.240209191013896
3.3408977719045643 7.650525588282245 -10.866164468288925
2.51320358271156 7.301170272779165 -10.39492451711281
1.6970851415008348 7.001077426888087 -9.87220183839885
0.8799882205467575 6.735123672658962 -9.33272253655043
0.05283378604228348 6.48308957871673 -8.801939236845154
-0.7886782453076024 6.218536410790808 -8.30083354255718
-1.6422802367909675 5.899952439966719 -7.854468580499118
-2.4832933090515 5.443048488685152 -7.51935109673317
-3.1355011244949194 4.683031705872168 -7.456185233088563
-3.2606673224324734 3.7153887734896927 -7.723186298078853
-2.991042688601834 2.7976043420321366 -8.060714887128203
-2.5254873888099794 1.9404824076370448 -8.338148029352784
-1.93330351301319 1.1346092735773037 -8.506724599111717
-1.2499355644397863 0.3856736529538682 -8.52888413487961
-0.5075403625986689 -0.28704778015646243 -8.372707009451897
0.25287695710418395 -0.8570689647936075 -8.01966912773464
0.9828333981425054 -1.300197079683176 -7.47314768599171
1.6314399599779703 -1.6014797587109424 -6.754635976057194
2.1474997194541565 -1.7534013963705768 -5.89547276096994
2.473628243250713 -1.751700037265583 -4.935899775801937
2.5507946464961124 -1.5999739251386766 -3.937070108267088
2.355015211145527 -1.3276294702113471 -2.9809394604827264
1.931448781731439 -0.9897603881553042 -2.123827126113982
1.3584308308344206 -0.6370166015379334 -1.3647868703152528
0.6996028199669938 -0.30080561234376324 -0.6704404267177108
0.0 0.0 0.0
-0.7037804634025913 0.2507387227188907 0.6863774935833048
-1.3726580425067065 0.4366179715514692 1.4259887395925792
-1.9574579363105402 0.542220007159264 2.2478450665856964
-2.402380134286643 0.5572933882441315 3.1588575054727723
-2.673938120400749 0.48883835358019295 4.133452418009325
-2.7864951661923363 0.3627110269331224 5.133666634944566
-2.7832801881824762 0.20882026324954248 6.136399194131987
-2.708899176116829 0.0532623383719088 7.136213494193323
-2.5981745217812215 -0.08117672262664102 8.135669607140057
-2.47384403995707 -0.1720907345462263 9.138511817543135
-2.3458827380871288 -0.19658311490077435 10.144587635355476
-2.2109385029007447 -0.13408169641552295 11.14814754348055
-2.0550204990094927 0.03028150289530399 12.136979226018141
-1.860272013420526 0.3018993322636711 13.09466491530297
-1.6118109854251537 0.6751553354043186 14.00457001673968
-1.3025220682985932 1.1369025934968713 14.853166166588725
-0.9390942310392606 1.672854461467454 15.63404701535243
-0.5437982980844329 2.2741278611644606 16.34919707613536
-0.14686776334798995 2.9382356604019226 17.005421841490723
0.22042564448139096 3.66308888507775 17.61275423676909
0.5309602107145763 4.441344249383698 18.184658034951127
0.7656551290533944 5.258940335691226 18.7375792155797
0.9154448823277918 6.095114494171827 19.29209018908531
0.9792094542544971 6.9254400200479225 19.871572308598246
0.9615879599972691 7.721235803316198 20.500399617437523
0.8702660913988588 8.449016242998413 21.20097391909836
0.7165116996091635 9.071661213166726 21.98677399685363
0.517830787785854 9.56064406627696 22.852834413624134
0.29783893756412155 9.913325206890455 23.77644745321659
0.07938200172739213 10.156568811243135 24.748422923920096
-0.10846168885079584 10.31842611506095 25.68851212802263
-0.265548406442011 10.444990400918064 26.716259474850986
LINES 1 65
64 0 1 2 3 4 5 6 7 8 9 10 11 12 13 14 15 16 17 18 19 20 21 22 23 24 25 26 27 28 29 30 31 32 33 34 35 36 37 38 39 40 41 42 43 44 45 46 47 48 49 50 51 52 53 54 55 56 57 58 59 60 61 62 63
POINT_DATA 64
SCALARS NodeIdx int
LOOKUP_TABLE default
0
1
2
3
4
5
6
7
8
9
10
11
12
13
14
15
16
17
18
19
20
21
22
23
24
25
26
27
28
29
30
31
32
33
34
35
36
37
38
39
40
41
42
43
44
45
46
47
48
49
50
51
52
53
54
55
56
57
58
59
60
61
62
63
