# vtk DataFile Version 2.0
Vessel Segment
ASCII
DATASET POLYDATA
POINTS 64 float
8.091328951786284 10.342516200052529 -8.978036592008767
7.213153003514295 9.923867807506166 -9.311743193173813
6.324995445941283 9.576456656544995 -9.59244632539323
5.390094434541718 9.235899053184397 -9.832234684158056
4.453314059427445 8.894462652078538 -10.002813472088333
3.5122349968257236 8.522172123662198 -10.086549435136648
2.5900675308912247 8.101720308252125 -10.047373511872783
1.7192239695174205 7.621027411719982 -9.848336124606897
0.9429972085488768 7.084473080065533 -9.47641916946296
0.28656802520512853 6.503617381826469 -8.965623313765345
-0.2558884164645007 5.876438532658124 -8.381026689308534
-0.6997936777098459 5.178134943008892 -7.793815433951642
-1.043789573860303 4.3771324500149715 -7.275108475405194
-1.2691206133877437 3.4762053216567397 -6.867150605456897
-1.3646625423163505 2.5161482642025583 -6.553580167387337
-1.3312508225283404 1.542530657426642 -6.270120598591883
-1.1546821996300503 0.5989374115791721 -5.942223490071314
-0.7973796520384172 -0.2535763708356983 -5.5247316526562855
-0.23529279647361792 -0.9401902939918312 -5.033569343496551
0.4950002354768367 -1.4333682690652467 -4.53111871854133
1.3260682564480746 -1.7728303050152636 -4.0582759474892445
2.206057851385509 -2.0141375400686528 -3.6164359639468917
3.112251623820278 -2.2003178322896066 -3.1910569082833495
3.9946589545257227 -2.3587693887165875 -2.7505945409659955
4.932107483616994 -2.535771881251101 -2.250878619190699
5.101503115351774 -2.6857954300597133 -1.4062954423153695
4.2370453076914165 -2.546581185873123 -0.9003591673250055
3.2869096114891554 -2.2160628084741063 -0.7246013055111469
2.3824657394552133 -1.7844120282807328 -0.5767565901697294
1.5263101267457213 -1.2573787306635225 -0.4386072393146268
0.7307707085133334 -0.6528201660498558 -0.2627536326181165
0.0 0.0 0.0
-0.6686502421550569 0.6387401902003886 0.4172614484411189
-1.2765567736060284 1.140850807406713 1.0542602883396615
-1.8139481006391338 1.383711599453229 1.879489898540229
-2.2823169568864192 1.3929060154201025 2.7795320249224194
-2.6967366710900413 1.2754011170185557 3.698034612895465
-3.061322336949219 1.1084930741979084 4.630106779700697
-3.366924053551258 0.9392633029636616 5.582591157773139
-3.595015843510123 0.7961140788997293 6.560831334059293
-3.725546953828002 0.6969588406307917 7.56199591729997
-3.7479604764969667 0.650782730094259 8.575202816480386
-3.6714855851754504 0.6593255919414335 9.58679669394187
-3.518467431550086 0.7238331296914484 10.587734771903255
-3.3098046047614127 0.8521463811935427 11.57230981492468
-3.0579060471331436 1.0581294339766754 12.533216883230628
-2.766460288045954 1.357545480084641 13.457777739787018
-2.4339213738797536 1.7613964058118947 14.32699648947241
-2.058597936151857 2.2688540068220333 15.121291067174393
-1.6435471629116138 2.8672508398773475 15.827633406116297
-1.19814265027912 3.5377184923583083 16.445205565874826
-0.7375912791174454 4.263279978774106 16.984443395979536
-0.2821677435945542 5.032841142688791 17.463763665418032
0.14477011371247053 5.840652947475736 17.904857626978234
0.5199344643887811 6.682753639480245 18.328521960114706
0.8241501224511334 7.552988887888327 18.752256293896636
1.044709423124877 8.441926008775186 19.188623553031633
1.1758944761337262 9.338102635706123 19.64599524074361
1.2206893621160761 10.229005113955308 20.12882259172964
1.191356307612411 11.103591564632312 20.64397416701129
1.1089260981229447 11.946885702767215 21.196605211302135
1.0006339253824854 12.755825275475534 21.81392392244672
0.900066997260906 13.488550227802016 22.478390015201228
0.8416597726882346 14.161878512725062 23.253613761187427
LINES 1 65
64 0 1 2 3 4 5 6 7 8 9 10 11 12 13 14 15 16 17 18 19 20 21 22 23 24 25 26 27 28 29 30 31 32 33 34 35 36 37 38 39 40 41 42 43 44 45 46 47 48 49 50 51 52 53 54 55 56 57 58 59 60 61 62 63
POINT_DATA 64
SCALARS NodeIdx int
LOOKUP_TABLE default
0
1
2
3
4
5
6
7
8
9
10
11
12
13
14
15
16
17
18
19
20
21
22
23
24
25
26
27
28
29
30
31
32
33
34
35
36
37
38
39
40
41
42
43
44
45
46
47
48
49
50
51
52
53
54
55
56
57
58
59
60
61
62
63
