# vtk DataFile Version 2.0
Vessel Segment
ASCII
DATASET POLYDATA
POINTS 64 float
5.819055578875855 8.304943425431073 -4.77252608230023
4.829647166975185 8.016451530808387 -4.958038238712974
4.003173881443109 7.569935280179353 -5.215961556394575
3.19770863807429 6.989800640993232 -5.463135340884235
2.4647505570803854 6.303327100535995 -5.597615703656522
1.8027800372599407 5.541122052440849 -5.512777563429228
1.2099328883634157 4.785121897342283 -5.188312304116222
0.6207601744657176 4.086074361908188 -4.74825242174063
-0.024761470707188402 3.428555288658189 -4.323861823691131
-0.7222212436921802 2.777366378081148 -3.979493335571685
-1.4274553293073182 2.0892487674201714 -3.73840207935958
-2.0545988039322154 1.303533805893647 -3.608065552623741
-2.4123706243402068 0.35802431318765826 -3.5949354560075713
-2.2491360074727687 -0.6330929815574925 -3.6802985060566225
-1.6451046835508407 -1.4374209155485733 -3.8032060260436054
-0.836936432594465 -2.0348129479879793 -3.937261047195526
0.06785904859371206 -2.477358428137825 -4.0566504570081126
1.028521410680197 -2.8007257515140407 -4.087296297948694
2.010398152052878 -3.0209129257303937 -3.9626360205396756
2.9842597270553117 -3.151357198176367 -3.7103800590505003
3.9435793806788872 -3.2122257699176773 -3.386829452971995
4.8911643947311765 -3.219632131144434 -3.020552204204578
5.808267025371766 -3.1684071053611738 -2.5967426482450855
6.599626578375405 -2.9903436499050438 -2.005106021434836
6.339041957273721 -2.5361421121556793 -1.2187522656354464
5.435343214517152 -2.2172956791041014 -0.8247718952281596
4.500653054667438 -1.9704109383445776 -0.5251379675079046
3.5341572182153937 -1.7637747103215677 -0.29781411099423405
2.5526422893336504 -1.5484576533465888 -0.1571766013749043
1.592727101256476 -1.2239927265474606 -0.12036681531043095
0.7286097643600215 -0.6942908326065221 -0.12038800775641328
0.0 0.0 0.0
-0.6138146428752231 0.7247883412643837 0.3532901099929852
-1.1225605419449853 1.335679962487038 0.9805046997566583
-1.4787571810821782 1.688325939230192 1.8592940322440956
-1.6058147496330102 1.702031935991011 2.8625914936075483
-1.499358998965179 1.4339851879433727 3.8340247284271856
-1.2447969177707339 1.0214989447223808 4.72504986697483
-0.9408701488906547 0.5724843892804827 5.582706201810308
-0.6855521248484657 0.167988183648967 6.477213242386185
-0.5674924577913081 -0.12154329883626434 7.441417186589216
-0.5913388734956436 -0.2792629266656915 8.44307741496464
-0.6854389747549862 -0.3301017559432771 9.451849035825676
-0.7782927004327592 -0.2765400733186872 10.460546102062823
-0.8128782116625408 -0.07627346473493231 11.453936843245005
-0.7527767088161346 0.34714254216071744 12.372363977759498
-0.6083952917518336 1.029050558613575 13.106828539446349
-0.44177151331541586 1.8917812222512167 13.612624806836571
-0.3086617521065828 2.8346241208652203 13.962473878221653
-0.2296048336478436 3.8056737479778175 14.245510418075684
-0.19938243335509587 4.782852210166295 14.516759576774344
-0.19960339874808936 5.756841713566913 14.800975083478566
-0.2070955568816903 6.725815863587335 15.101645958231163
-0.2055658393441901 7.692584316053137 15.409567987892602
-0.19501229905662473 8.661041587097516 15.711775414117321
-0.1857643980622853 9.632577473757346 16.004058241877736
-0.1849462326918824 10.604114376233975 16.296639522340715
-0.1948780831054007 11.567503047886943 16.61476006644514
-0.2184181008426916 12.504763018830179 17.002135211108058
-0.2656839188765669 13.370730333153857 17.527313780644732
-0.3569773619198157 14.05115696626732 18.270793735500632
-0.5061308636538513 14.369794346247971 19.226391358100443
-0.6799371451890583 14.328839137983033 20.18336049124936
-0.8790884412272146 14.00825926207591 21.16067177629196
LINES 1 65
64 0 1 2 3 4 5 6 7 8 9 10 11 12 13 14 15 16 17 18 19 20 21 22 23 24 25 26 27 28 29 30 31 32 33 34 35 36 37 38 39 40 41 42 43 44 45 46 47 48 49 50 51 52 53 54 55 56 57 58 59 60 61 62 63
POINT_DATA 64
SCALARS NodeIdx int
LOOKUP_TABLE default
0
1
2
3
4
5
6
7
8
9
10
11
12
13
14
15
16
17
18
19
20
21
22
23
24
25
26
27
28
29
30
31
32
33
34
35
36
37
38
39
40
41
42
43
44
45
46
47
48
49
50
51
52
53
54
55
56
57
58
59
60
61
62
63
