# vtk DataFile Version 2.0
Vessel Segment
ASCII
DATASET POLYDATA
POINTS 64 float
7.974303253559197 11.6871220413009 -6.734883272830215
6.945537239816409 11.75563471821964 -6.9242693505799044
6.0083049467379315 11.7414401730584 -7.194162200644042
5.046163973072152 11.649365404108204 -7.518972882674822
4.110161272652972 11.465159595147732 -7.864894733417648
3.1991629818868126 11.179104644905966 -8.206742345574218
2.3180474656740673 10.782002814508777 -8.514569781557785
1.475877581279972 10.267141973901976 -8.747299845776045
0.689433182592344 9.635466346754075 -8.848559956892414
-0.01287189111355753 8.910127738793534 -8.760375141518114
-0.6041095054989745 8.138144433530504 -8.473782348063903
-1.0867886258983275 7.35047690382251 -8.054893117721457
-1.4880000972949068 6.539532618934109 -7.595916304573868
-1.8322139892319442 5.67717532153976 -7.18756850764018
-2.1216484220972225 4.743295131895874 -6.919395674117425
-2.3275905727353883 3.7534589893062673 -6.847950949699616
-2.4103034348978367 2.749556813332098 -6.961954981446835
-2.3355832908849443 1.7662213916085783 -7.197634870007131
-2.0615520147704163 0.827772964199867 -7.465379885279675
-1.5356899552011565 -0.016538375007044664 -7.654996080485317
-0.7598536961236199 -0.6652811582100373 -7.647376943425272
0.14407653764564635 -1.0489453146098557 -7.401383714379672
1.0477248223027094 -1.2062916255543545 -6.970143968901587
1.8878896871842792 -1.2009438156245562 -6.402697454294167
2.613490425844815 -1.067220002352015 -5.707778715000328
3.103253759481053 -0.8137904134337944 -4.858724736819765
3.108396982755406 -0.4891575616446569 -3.9049817797788067
2.6449685921039556 -0.2246105705448602 -3.044552577882033
1.986238405445554 -0.05776190605820489 -2.2917433036167063
1.2790822577549386 0.027988854397429187 -1.5693327307341336
0.5971029697707448 0.04471874208713307 -0.8185542102016062
0.0 0.0 0.0
-0.4635376144909445 -0.0934740403708982 0.8971025713265969
-0.7808223648642489 -0.21393860926027894 1.8528349395524515
-0.9730019879102159 -0.33593615623319695 2.8412945291842995
-1.0694225760308267 -0.43147610555499377 3.8466164161030956
-1.0886927140290141 -0.46802021274297584 4.860199005995621
-1.0373129115483557 -0.4084036474301689 5.871375378660856
-0.9157553582636475 -0.21582018757137117 6.859516469367627
-0.7281467718977588 0.13320293478140127 7.792864636304908
-0.4906934632966685 0.6348540153656849 8.641549894660285
-0.23054026954517987 1.2582108140223356 9.39817922535274
0.024701729947839094 1.9638721059942497 10.08084353450103
0.25421772917028745 2.720730976339842 10.716274903491495
0.44623347767550126 3.5106271810430885 11.323321410252888
0.5958046743142806 4.327663171056258 11.905889470432776
0.7045658489721662 5.174330116369647 12.454143351387318
0.7802747185101343 6.054359655812275 12.953196839258995
0.834076326700665 6.962338394023476 13.402711598218907
0.875042115314799 7.880126674039778 13.8332128648456
0.9032514129084713 8.779444666402139 14.301854082850836
0.9095556701416895 9.619382886850362 14.870183293930646
0.8790616066150913 10.344294844234577 15.578267680489642
0.7990446454348419 10.901012841372012 16.42146121965443
0.6656506538035789 11.261638163590348 17.359498189519186
0.4833149711049094 11.42922395852819 18.342679068880397
0.2608109261743239 11.431217782807773 19.332120224447397
0.010296524633532912 11.30838635656378 20.30746630482387
-0.2502972652035279 11.104463688491059 21.266562846396518
-0.49361999979491294 10.85833028579632 22.220101880490347
-0.6831382237669799 10.599856368672514 23.182952855943764
-0.7766033363006838 10.351835766435203 24.167238889841386
-0.750887876663814 10.14034710281375 25.11929119223782
-0.5594238863718358 9.960045826884418 26.133929158885174
LINES 1 65
64 0 1 2 3 4 5 6 7 8 9 10 11 12 13 14 15 16 17 18 19 20 21 22 23 24 25 26 27 28 29 30 31 32 33 34 35 36 37 38 39 40 41 42 43 44 45 46 47 48 49 50 51 52 53 54 55 56 57 58 59 60 61 62 63
POINT_DATA 64
SCALARS NodeIdx int
LOOKUP_TABLE default
0
1
2
3
4
5
6
7
8
9
10
11
12
13
14
15
16
17
18
19
20
21
22
23
24
25
26
27
28
29
30
31
32
33
34
35
36
37
38
39
40
41
42
43
44
45
46
47
48
49
50
51
52
53
54
55
56
57
58
59
60
61
62
63
