# vtk DataFile Version 2.0
Vessel Segment
ASCII
DATASET POLYDATA
POINTS 64 float
5.68398826033594 12.360586780128285 -6.463536171249185
5.062821308559512 12.137642020310295 -7.2711222569162715
4.439976898088877 11.727680194196424 -7.901951307814765
3.7551564808229516 11.15023262439195 -8.399959316163727
3.0550278974126592 10.470498030651989 -8.667625012558721
2.3363114493659953 9.755531349819506 -8.696050803900722
1.618519140541159 9.070853194924481 -8.485953332993361
0.9258413942897364 8.449286268565322 -8.082789481292343
0.27734392166502453 7.874997113393006 -7.55471340688371
-0.31236712648967985 7.29356274496407 -6.968783589169765
-0.8121599082718468 6.6191924926176595 -6.3993023027025036
-1.1157269832440533 5.7408145548223155 -5.996942669313717
-1.1015089103086109 4.731358476914457 -5.924199267704174
-0.8763593327893704 3.7507062006514986 -6.050990301528833
-0.5586297883988766 2.7990482156739596 -6.201987854455479
-0.17197875786968506 1.8654104927032265 -6.290731818920504
0.31962125763724153 0.9782365672381717 -6.284235230355211
0.9706966776583384 0.20576882849978695 -6.198214238385425
1.7718046011413295 -0.40271674146611375 -6.070191760529897
2.6602891887549607 -0.8662015982643713 -5.91256238184694
3.5861222896761253 -1.2257248924436535 -5.707087314111561
4.518279416797245 -1.5032835158115951 -5.414916131319325
5.406000651518368 -1.6869349256572446 -4.96898692429839
6.073831535739539 -1.6799563880214652 -4.210665409534742
5.876149124288021 -1.3236800862983369 -3.2954040414965684
5.111027459847854 -0.9160389236741214 -2.763773574322985
4.231706813271226 -0.5582706108008987 -2.4113154112305413
3.309853909174027 -0.25214363584608923 -2.116904886185097
2.3801465089403813 -0.009852151222420214 -1.791320790158395
1.4761370712684052 0.13846264615269321 -1.356132682085859
0.6601030553804903 0.14877287463928973 -0.7548590159288165
0.0 0.0 0.0
-0.48169141421321887 -0.27930181472223253 0.8476582597870671
-0.8049580320065046 -0.6341091031149141 1.7412673440269981
-1.0032085722648627 -0.9996965657919499 2.666618172493408
-1.1107184965882209 -1.3088505600707339 3.626731470463101
-1.1620708344880735 -1.497036328848468 4.622204173874433
-1.1939438909903204 -1.512218066185243 5.635721212075149
-1.2348535417156696 -1.3437532819042945 6.635032774250545
-1.2857034828876404 -1.0310731165348879 7.598746801208433
-1.3202429255124852 -0.6263089853031397 8.528390440751126
-1.3089339274774583 -0.16080944337956932 9.429776472400192
-1.2385208581902196 0.36436707108678273 10.29487636926745
-1.117819346972162 0.9654828256771286 11.103108017520299
-0.97270845255363 1.6574646671472106 11.830506826809078
-0.8353569639217295 2.4386430343771788 12.46290401651902
-0.7318138534273395 3.2900874532506803 13.004625723720968
-0.675871572276913 4.186713973235655 13.475961886836366
-0.6724527259137965 5.105555392911257 13.906165130329756
-0.7202319898776448 6.026884128850572 14.328415299985343
-0.805131060111548 6.933086836428356 14.776700281779446
-0.8806430349761072 7.812303216294913 15.277225712766796
-0.8584477833266594 8.659971780385906 15.833742114595212
-0.6700811598112187 9.464969782059974 16.421271892203016
-0.3462345900149264 10.215894660312426 17.02162675469683
0.03301316322748262 10.915105521855738 17.651424890262184
0.3895741493555537 11.56515523460427 18.343837539571098
0.6472331058674555 12.157298466149445 19.125928281107885
0.7338662603486991 12.6673307251153 19.997920203576484
0.6211610531392121 13.071698896155288 20.921506965208348
0.34615046179708614 13.370415725339255 21.8477766287587
-0.035905542602786375 13.583274059620805 22.77748566728382
-0.4393637948048455 13.725168683199653 23.654097072745955
-0.8486958976619182 13.816079792999053 24.60959209841098
LINES 1 65
64 0 1 2 3 4 5 6 7 8 9 10 11 12 13 14 15 16 17 18 19 20 21 22 23 24 25 26 27 28 29 30 31 32 33 34 35 36 37 38 39 40 41 42 43 44 45 46 47 48 49 50 51 52 53 54 55 56 57 58 59 60 61 62 63
POINT_DATA 64
SCALARS NodeIdx int
LOOKUP_TABLE default
0
1
2
3
4
5
6
7
8
9
10
11
12
13
14
15
16
17
18
19
20
21
22
23
24
25
26
27
28
29
30
31
32
33
34
35
36
37
38
39
40
41
42
43
44
45
46
47
48
49
50
51
52
53
54
55
56
57
58
59
60
61
62
63
