# vtk DataFile Version 2.0
Vessel Segment
ASCII
DATASET POLYDATA
POINTS 64 float
6.241983092226942 10.29886873399567 -8.666861945054695
5.349417640664672 10.191902122075847 -9.172818733658994
4.492734042575714 9.94309870468439 -9.602304384058918
3.632119987186755 9.50079002713244 -9.936790738939216
2.867498721880305 8.85212384859445 -10.065666173187845
2.2363033164592174 8.066710831023329 -9.946605369704802
1.733260102807864 7.251397100963516 -9.613061851811974
1.307508369414989 6.460732953654148 -9.140908829099688
0.9182161140674252 5.701621466985711 -8.591696946982811
0.540378947036443 4.962757105076579 -8.00796591405097
0.16545481978817023 4.22410395274357 -7.42209206092149
-0.19401907028146612 3.457122288983879 -6.86360073139424
-0.4915498629771254 2.625800420889863 -6.364132462365
-0.627620294419048 1.7044298835097595 -5.962733823986532
-0.4716564255706421 0.7375270148952926 -5.701516329683844
-0.009514438708736151 -0.15569145916073973 -5.569489146425809
0.6476911453741808 -0.9251959027839228 -5.499449001000354
1.4106365068355868 -1.5910112675521169 -5.437417536126311
2.233669951643851 -2.1783405445418254 -5.352618137449038
3.0922340486999853 -2.7025649853700155 -5.223578048394738
3.972958598467954 -3.1702859064848923 -5.029315402297526
4.851627136605059 -3.5660695804550135 -4.728090519729111
5.710076769324319 -3.8628275333964996 -4.251209170533762
6.118756739259381 -3.7288320017098844 -3.346890646767368
5.652432869072399 -3.1866686128021064 -2.6460972846166393
4.9306611128686155 -2.6148319460959177 -2.2179989021159057
4.141182500617236 -2.06075556458111 -1.9013362876520323
3.3208492279498176 -1.5297742954293638 -1.6296499313115909
2.481373011527618 -1.0295608312902964 -1.3562162822335486
1.6319235244362653 -0.5793811640021862 -1.0320480525975357
0.7897205440652836 -0.21662015280860236 -0.5979323930552553
0.0 0.0 0.0
-0.6720986118874799 0.030311347914774314 0.7585294810923136
-1.1986869017572859 -0.10359274489118789 1.6152455322538168
-1.6016264729120528 -0.34541414032660916 2.514317739371889
-1.9142525144531137 -0.6466193368941909 3.4314012730481327
-2.161572527042156 -0.9721499966420599 4.359933706829399
-2.358414748889447 -1.2940963254423083 5.301768976858072
-2.512325024004318 -1.5852440674614998 6.261387149660919
-2.624066850421729 -1.8139752694598401 7.243489395087404
-2.688614926962632 -1.941602293979187 8.247860056791009
-2.696322291276277 -1.9230777081724546 9.262063934651772
-2.6390326954311445 -1.7188825828368344 10.253943702962822
-2.5175408939790342 -1.3193949654774246 11.178315547238146
-2.3444367821104306 -0.7548199917345139 12.003107203240923
-2.1360400833420616 -0.07304697249140718 12.724938556282957
-1.9041769154156 0.6840376632953508 13.35926626590794
-1.6554258204672736 1.4867187557749035 13.927835627193385
-1.3928152608934234 2.314394817313422 14.452600103636938
-1.11846833701353 3.1527220490866057 14.953910230642727
-0.8358932741505829 3.991259562620207 15.45041761090316
-0.5520237902129834 4.822832146186625 15.957637548989428
-0.2790880306377376 5.644680196413175 16.48630758757551
-0.03296556799398348 6.4574589815020556 17.041505654694173
0.1697897565275051 7.264053287443296 17.62259156223963
0.3172957150393137 8.066751872162426 18.225333718893918
0.4065485319517916 8.863593174836032 18.847013790720702
0.4425546483519502 9.647241573479336 19.49040282750229
0.43340039043777506 10.405740248333522 20.16403809275686
0.38797557262361976 11.118874718102008 20.88516613871608
0.3149365196821542 11.753806495829586 21.66984853183275
0.22031571690488783 12.25227279552071 22.558226753683385
0.11880164866058006 12.541875066515924 23.500330752862094
0.017467547391283544 12.553283701595186 24.52674001954365
LINES 1 65
64 0 1 2 3 4 5 6 7 8 9 10 11 12 13 14 15 16 17 18 19 20 21 22 23 24 25 26 27 28 29 30 31 32 33 34 35 36 37 38 39 40 41 42 43 44 45 46 47 48 49 50 51 52 53 54 55 56 57 58 59 60 61 62 63
POINT_DATA 64
SCALARS NodeIdx int
LOOKUP_TABLE default
0
1
2
3
4
5
6
7
8
9
10
11
12
13
14
15
16
17
18
19
20
21
22
23
24
25
26
27
28
29
30
31
32
33
34
35
36
37
38
39
40
41
42
43
44
45
46
47
48
49
50
51
52
53
54
55
56
57
58
59
60
61
62
63
