# vtk DataFile Version 2.0
Vessel Segment
ASCII
DATASET POLYDATA
POINTS 64 float
8.13566002901493 8.658415167901394 -6.70670177825741
7.2284782827669805 8.54609101956492 -7.214824728911105
6.374462721911628 8.322011069161839 -7.6428676424097475
5.484012903194616 8.005855769415351 -8.015363063820857
4.591461057831572 7.605716903281454 -8.285629665373486
3.7128327061781543 7.1193568712293 -8.425348615159738
2.8735555176143226 6.550499126753618 -8.417271886649507
2.091426536490727 5.923660180360305 -8.263167156547633
1.358313038946698 5.283053533272596 -7.978764025874646
0.649273485629904 4.674728075941334 -7.583679347444517
-0.055609053310479176 4.122360469764913 -7.107088134899578
-0.7609801602899895 3.6084188644836472 -6.589677244907663
-1.4537366958668265 3.074763338669917 -6.075386386766836
-2.0748963613226383 2.417761647571839 -5.617225691091264
-2.3853002691640097 1.5073258969793575 -5.324220803086827
-2.1162886515390587 0.5395746870156696 -5.230708608971307
-1.4692670474492633 -0.22750914854305018 -5.103076397837471
-0.6625614398769168 -0.6986478828882908 -4.7213203245263085
0.06837791053307098 -0.7828332591503144 -4.030362586493759
0.6168601844327766 -0.6047594373675376 -3.1966950501521265
1.086966062413641 -0.360135075592732 -2.3313378903731117
1.6232007034598823 -0.21846530155185184 -1.4823806806078692
2.370401528189918 -0.4872657440283253 -0.8782602520033952
3.104545878606742 -1.177146893480168 -0.83064319773686
3.670555564114247 -1.9788535961660867 -1.0943115445343483
4.1260624568390005 -2.7935828938498624 -1.4748368196937858
3.7505839645288797 -2.8359785308480707 -1.3496229552079162
3.1722627126094505 -2.046934468229355 -0.9794851203758876
2.548016410527177 -1.287112680355565 -0.6936536448954814
1.8267539458651965 -0.6110784941186556 -0.4734005691772728
0.9644576462174875 -0.11916346608978981 -0.27337140433161505
0.0 0.0 0.0
-0.8631960791458672 -0.27488096451535166 0.44928021688781483
-1.5172810577439972 -0.7189776723931228 1.082661182159263
-1.9747281110680523 -1.162921854038559 1.870537613624482
-2.2514001393723455 -1.526251405187694 2.775361845822873
-2.3621205559964653 -1.7812317263840627 3.7502447763756694
-2.340476808408398 -1.94138447999146 4.7514726062067805
-2.2421229931506685 -2.049238591144816 5.755528697080104
-2.1215950364463727 -2.1474440497884855 6.758149200757116
-2.008474048901167 -2.2510654226228555 7.76105995712894
-1.9093114518425158 -2.3419607743438835 8.766739073549097
-1.8195187321758834 -2.365916392733812 9.776849230486203
-1.7348124412977508 -2.2181696683641254 10.775843866462989
-1.6690912495605146 -1.7702996923492447 11.680360214186463
-1.655638460336961 -1.0191430869612006 12.357945886763018
-1.694827307187639 -0.1133972883700304 12.811809928067966
-1.7428697663244017 0.8398500184587036 13.15573772523558
-1.748745258939987 1.8026226687958073 13.475637804553328
-1.673675985731888 2.761844853033863 13.796971696306823
-1.5054916224715003 3.7147092345022426 14.10165457509772
-1.2535090090920877 4.659843388530707 14.370527156612896
-0.9370355339777386 5.593532329681863 14.610004769340161
-0.5818236708498471 6.514410649511801 14.845057161692093
-0.22380207769811722 7.428032603415347 15.102892324834936
0.09266162274769374 8.343162440773959 15.405424167731562
0.3340914918838032 9.259487095618947 15.767340599044486
0.5039268383027217 10.16179308162175 16.198554633021274
0.6403474613396222 11.026025414382028 16.711823136169944
0.7959430792555763 11.817582820536671 17.326306270620492
1.0054929137282702 12.48583839706144 18.059834995160045
1.2543995826821195 12.96917529020538 18.916219090789706
1.4803582185839932 13.216505801571376 19.839544741502944
1.6260475617134686 13.190987147462875 20.873353059069306
LINES 1 65
64 0 1 2 3 4 5 6 7 8 9 10 11 12 13 14 15 16 17 18 19 20 21 22 23 24 25 26 27 28 29 30 31 32 33 34 35 36 37 38 39 40 41 42 43 44 45 46 47 48 49 50 51 52 53 54 55 56 57 58 59 60 61 62 63
POINT_DATA 64
SCALARS NodeIdx int
LOOKUP_TABLE default
0
1
2
3
4
5
6
7
8
9
10
11
12
13
14
15
16
17
18
19
20
21
22
23
24
25
26
27
28
29
30
31
32
33
34
35
36
37
38
39
40
41
42
43
44
45
46
47
48
49
50
51
52
53
54
55
56
57
58
59
60
61
62
63
