# vtk DataFile Version 2.0
Vessel Segment
ASCII
DATASET POLYDATA
POINTS 64 float
4.02062388108045 13.010089266194361 -8.824034162868681
3.057202179766779 12.839861683062225 -9.192571520816564
2.2275577385452334 12.459551469692435 -9.5336382247153
1.5112118145134572 11.791078457085653 -9.82443438883143
1.0408605679334428 10.90476725787434 -9.955921648794188
0.7324198933406315 9.939146675918325 -9.919349316073125
0.48044716824369543 8.971351711382523 -9.749124664691378
0.218238132382873 8.027241360728215 -9.486233643535448
-0.07659192736701181 7.108195326335156 -9.173500063797626
-0.3852751099740578 6.195478752096361 -8.855545676683427
-0.6527225913554915 5.2581775640601105 -8.574264284215438
-0.7835518771370322 4.2727530873660235 -8.37415336860591
-0.6528542039888565 3.272298431455445 -8.285017623847745
-0.20375695902103533 2.364346336194723 -8.273540538826365
0.49773130467793886 1.6326818979939317 -8.263141273483239
1.3510023752697997 1.088255606836636 -8.202008017140418
2.2818156198396844 0.7071878737193144 -8.071528396298739
3.2445057031426674 0.4605775383564696 -7.868362809202391
4.210860361317635 0.3229729489116317 -7.591984797331777
5.159417061979193 0.27393316346697055 -7.236140210429596
6.063393915424515 0.30067381798645965 -6.778029862473645
6.858506754031325 0.40233466355060266 -6.1455333011759326
7.144917569258934 0.574979621610405 -5.2175155971766065
6.597345279490977 0.7047198235069749 -4.381643879302514
5.75744405938808 0.7617152201053542 -3.8126009847382516
4.8543766693647825 0.7824302187987646 -3.350616334340421
3.9314436338489704 0.7738922363745535 -2.9295370644378536
3.0107064988924463 0.7324776624843411 -2.505305319715788
2.1155763721577907 0.6459442649983781 -2.0357957878568773
1.282231237791023 0.4973614716233912 -1.477022550442396
0.5637266339485594 0.2762373224028723 -0.7965445000087058
0.0 0.0 0.0
-0.4234627677257891 -0.2896981210259045 0.8750720891060053
-0.7483876786157461 -0.5581240297709963 1.797853538131625
-1.006537443978376 -0.785142421745921 2.7523640830533442
-1.2128915893503927 -0.9581475051052657 3.7305093204932267
-1.3669916993837867 -1.067409472831593 4.727259859219817
-1.4570357022532645 -1.1021647801675414 5.7371767297872145
-1.4672741799340534 -1.0488854400027685 6.750086443637186
-1.3887420166413762 -0.8932866124332393 7.7493498800472995
-1.230498200289506 -0.624317930735335 8.714473741601513
-1.0196070346896058 -0.23703481593298967 9.627959861018555
-0.7934221600276677 0.266802574053931 10.478831373508458
-0.588932403081742 0.8793053970437512 11.261151067305052
-0.4367250580637498 1.5866748906250527 11.97206531983049
-0.3535954225130839 2.3689707390212176 12.612505940834291
-0.34016257841720354 3.2036798314454686 13.188896859282465
-0.3825260161175652 4.070434553836813 13.71448534191189
-0.4574894355286374 4.953899435643188 14.207764113471233
-0.5395744816348905 5.842853730034743 14.689974707960108
-0.6066041194229339 6.727062505230762 15.182937873617679
-0.6431728066487266 7.5936131299750524 15.709304301252864
-0.6421869721604168 8.423014206627311 16.293524854008098
-0.6052126367558671 9.185795985770024 16.961156038597018
-0.543422343565957 9.8375677318308 17.735717379722672
-0.47897508921227927 10.31442613294384 18.628125516993446
-0.4453346695614456 10.54155427524666 19.615203792918592
-0.4776574893616847 10.480888900279387 20.626315455751637
-0.5934854048227287 10.174860455082447 21.58595732855206
-0.7891699222395981 9.71089769806606 22.466736139566517
-1.0531763711859914 9.164603590905815 23.276927695351624
-1.3879917879508639 8.578303680319666 24.05019144319108
-1.7601636891522454 8.023093625287208 24.758095002796008
-2.2486355167700562 7.496013740002705 25.51760689608732
LINES 1 65
64 0 1 2 3 4 5 6 7 8 9 10 11 12 13 14 15 16 17 18 19 20 21 22 23 24 25 26 27 28 29 30 31 32 33 34 35 36 37 38 39 40 41 42 43 44 45 46 47 48 49 50 51 52 53 54 55 56 57 58 59 60 61 62 63
POINT_DATA 64
SCALARS NodeIdx int
LOOKUP_TABLE default
0
1
2
3
4
5
6
7
8
9
10
11
12
13
14
15
16
17
18
19
20
21
22
23
24
25
26
27
28
29
30
31
32
33
34
35
36
37
38
39
40
41
42
43
44
45
46
47
48
49
50
51
52
53
54
55
56
57
58
59
60
61
62
63
