# vtk DataFile Version 2.0
Vessel Segment
ASCII
DATASET POLYDATA
POINTS 64 float
6.666350654082183 10.56284450448194 -7.28043950632775
5.88207577422009 10.893437525424192 -7.888617008182887
5.041732525582204 11.046884169251763 -8.356364537658509
4.097744366389788 11.069448082499417 -8.753739485276474
3.1348152006677847 10.940268683780538 -9.03932546246911
2.175249530962554 10.671188684521104 -9.228116540878162
1.2519802443045918 10.262798113480157 -9.325297428527382
0.40024576371782383 9.712501141794034 -9.338093748524583
-0.3375208651145928 9.019397140721246 -9.278552054942402
-0.9155651464242994 8.193674989589757 -9.16850687447403
-1.2993341148054893 7.2640806562234745 -9.039546888643814
-1.4826619323234818 6.273636701809977 -8.922196288967408
-1.474055643939314 5.264669885434552 -8.820461234738637
-1.2806761531985071 4.276152538636197 -8.702570697422562
-0.9190691314630496 3.3434332578815944 -8.53591909204393
-0.4165467971500633 2.492486992680628 -8.307835114938781
0.19402237383176352 1.7340094969546669 -8.023575378480801
0.8812115480902134 1.0639743897483749 -7.695050257741426
1.6194642095322767 0.4704583367134614 -7.331789763121337
2.389043205453152 -0.060330392299882116 -6.937707633638234
3.173704288051058 -0.5406341852759144 -6.509899470115165
3.956530843505962 -0.9795391803712724 -6.03720422121199
4.711407021269968 -1.3806411129519383 -5.48995574153383
5.366546099066799 -1.72841900095824 -4.796310913291179
5.5599617404186406 -1.8849650251549597 -3.843941391896112
4.978463208053739 -1.6987327902359486 -3.0275553986472086
4.1749810220013925 -1.4025026222065538 -2.4850608515440644
3.3261058009743576 -1.0868136523973868 -2.027723617462937
2.465646844006564 -0.7732392158626619 -1.591026570406337
1.6113864810576641 -0.47649422954983206 -1.1310757129673366
0.7813691725489809 -0.21241440381539708 -0.6109874112280458
0.0 0.0 0.0
-0.7016556789988394 0.1428606600800929 0.7182822957315518
-1.297971938672505 0.20943460741586956 1.5359545209334908
-1.7848643811809128 0.21266878437365574 2.425866035075968
-2.177214563907127 0.17862077195984982 3.3607698541751754
-2.492960436052303 0.13469258636979994 4.323939521542779
-2.743911904400342 0.10666095972713373 5.306533674244002
-2.9317916700445266 0.11810577078520848 6.303469003752792
-3.047976558823138 0.19131975540023097 7.308546142797785
-3.077325533781478 0.3443868588474509 8.310908917711322
-3.0051089015393906 0.58919634769372 9.292578529219378
-2.825133813107503 0.9294392517452167 10.231000201567172
-2.5474701143832776 1.3593471846220606 11.106733156525351
-2.1948581001519836 1.8694205099640087 11.909573160435917
-1.7953787708072584 2.4519200398399352 12.63773951469618
-1.3772842920894588 3.1011053888483144 13.295723728776368
-0.9673496133989087 3.81151604714126 13.892820355699982
-0.5889802433685489 4.574312775082804 14.444435237976318
-0.2590030253692211 5.37562360484897 14.97196333454384
0.013039064364182592 6.197230569745593 15.501425143514735
0.2233656156861405 7.01772406665421 16.059787383130878
0.3743947341712105 7.812986589499668 16.671268808938553
0.47538810259460373 8.557879679666401 17.35252298819572
0.5401029825827832 9.229524269470037 18.10998143746902
0.5825228959678544 9.810999313052465 18.940080556434953
0.6122714142455069 10.293091852697964 19.832164108662806
0.631859741393409 10.672398423115256 20.772823079149305
0.6359283657716995 10.947771419214597 21.749166976854916
0.6121839172295189 11.116896435969212 22.74921332713694
0.5433710650829595 11.175206670695875 23.757924748373057
0.40054122603893416 11.107956893389815 24.770587327020586
0.1858912553539699 10.93208896003193 25.7039572136737
-0.1724812343227341 10.595597234199978 26.627475745385663
LINES 1 65
64 0 1 2 3 4 5 6 7 8 9 10 11 12 13 14 15 16 17 18 19 20 21 22 23 24 25 26 27 28 29 30 31 32 33 34 35 36 37 38 39 40 41 42 43 44 45 46 47 48 49 50 51 52 53 54 55 56 57 58 59 60 61 62 63
POINT_DATA 64
SCALARS NodeIdx int
LOOKUP_TABLE default
0
1
2
3
4
5
6
7
8
9
10
11
12
13
14
15
16
17
18
19
20
21
22
23
24
25
26
27
28
29
30
31
32
33
34
35
36
37
38
39
40
41
42
43
44
45
46
47
48
49
50
51
52
53
54
55
56
57
58
59
60
61
62
63
