# vtk DataFile Version 3.0
vtk output
ASCII
DATASET POLYDATA
POINTS 5568 float
0.0 0.0 0.0
0.15912852520726423 0.03874530072942267 0.9864972955547054
0.3459202688802909 0.06406059449701357 1.9685706025929588
0.538589776723249 0.08186368839206176 2.949672794311699
0.7190800650069941 0.09446477975627154 3.9331688381937684
0.8732422715095359 0.10403376225843775 4.921168053102434
0.9895497509651444 0.11199644424757355 5.914349388971279
1.058073736641595 0.11992584145892793 6.911967345930194
1.0698799352949067 0.12999712902359867 7.911846930100282
1.0183664160126549 0.14504386269081532 8.910405868339335
0.9004170170120861 0.16814800381241535 9.90315666181091
0.7156630235152549 0.2017569153555518 10.885366620501951
0.46563241966481284 0.24715753540531615 11.852539552731384
0.15292683420273862 0.3043409148347236 12.80066680048764
-0.21874031045698827 0.3720247049180684 13.726562279545854
-0.6437646737441707 0.4478419114316783 14.628563411368203
-1.1147947950709445 0.5286532334457444 15.506971149857128
-1.6235938491219768 0.6111039670092814 16.363899034297592
-2.161722203070374 0.6921394130404239 17.202857395101823
-2.7210867884396426 0.7692178850412911 18.028187734898367
-3.294281743831889 0.8402302318290263 18.844523933848638
-3.874830312017716 0.9034513126726472 19.656291422058377
-4.457197912846601 0.9575704276823115 20.4674135453514
-5.036584706299768 1.0016528076549567 21.281273292081757
-5.60870297703321 1.035046952988941 22.100764302008276
-6.169539194340689 1.0573590181173422 22.928390370414743
-6.715370808283239 1.0686433814591143 23.766209272305147
-7.243058839325044 1.0695698387364692 24.61564701785931
-7.750510345126405 1.061568845520664 25.477290188416294
-8.236870006061652 1.046797553462615 26.35092402999175
-8.702310146027864 1.0280089474350684 27.235803945229843
-9.147985645565468 1.008245876136641 28.13078035280982
-9.575624778901428 0.9908388433728116 29.03456227719757
-9.987385513888745 0.9797008099085794 29.94578620211024
-10.385860293450099 0.9789222033777231 30.862965161651616
-10.774303214643124 0.9920976497533484 31.78434375082538
-11.156347849978257 1.0219858707587015 32.70800418131744
-11.534407868643047 1.070142842584139 33.6325319139203
-11.9099286477394 1.1362482394707616 34.5569853854208
-12.283962383653607 1.2169210505789096 35.480885088822625
-12.657198672829272 1.307095491366566 36.40422860164492
-13.02955995815119 1.4021793015325974 37.32743288144312
-13.400647095220057 1.4981626533888974 38.25105701109136
-13.770164854944891 1.589209100043079 39.17580950219349
-14.138008354814152 1.6693001021672362 40.10224168588676
-14.50280084401188 1.7322930187008359 41.031197191974925
-14.862716007489016 1.7721489219312336 41.96333054191844
-15.215834905454917 1.7862257338912468 42.89880308949233
-15.559985298309666 1.7745394957337952 43.83764489668652
-15.89224868040927 1.7379491896851196 44.780121524735726
-16.209113136397306 1.6786838897812029 45.72673894521704
-16.50617379490919 1.600773110799746 46.678413719330024
-16.78012268841352 1.5103756572816365 47.635900170484916
-17.028778342544545 1.412799981437316 48.59956471437568
-17.250770898706282 1.3125506468234884 49.56944582869757
-17.445172026503847 1.2133476386240845 50.54533873505319
-17.611614586439984 1.118428341685858 51.526810691509745
-17.750134581160054 1.0306536123160548 52.513272960401366
-17.860841900330385 0.9528836319357802 53.50407855164203
-17.94429747410285 0.8877444785450367 54.49845878973099
-18.001624969477504 0.8374964576048934 55.495548903344435
-18.034555326629544 0.8038966293443667 56.494441611856566
-18.045304841409955 0.7878590584609547 57.494255216611045
-18.036836612833937 0.7896628131289546 58.4942177336955
0.0 0.0 0.0
0.11898381007049277 -0.12426464991978775 0.9850894120441156
0.21250767850803298 -0.26597895366512836 1.9705691643203616
0.28001459261268724 -0.41804124900589 2.9566319791976725
0.3188044912117846 -0.5719962134996771 3.9439481457190095
0.3260366786597168 -0.7201607144978356 4.9328844308803355
0.29800494264719785 -0.8545328933700552 5.9234188014709055
0.23143494588823754 -0.9706631463921814 6.914419406851412
0.12236649578015157 -1.067488212373712 7.903726730077462
-0.03311203084676445 -1.1460493808904473 8.888437129412823
-0.23833867582580331 -1.2074541732187 9.865223429311513
-0.4970217582386905 -1.2512485545695804 10.830192400333619
-0.811667242916184 -1.2759235735976344 11.779080888201413
-1.18225314724306 -1.2805841358732368 12.707867390403887
-1.6054002064427186 -1.2660730115568235 13.613812197531647
-2.074546460861206 -1.2355541491756794 14.496405190368133
-2.58104519927058 -1.1933447392276473 15.357612130482732
-3.1155280720015437 -1.143553232601418 16.20132349382042
-3.669386555430491 -1.0893942491332154 17.032171003802535
-4.235750649851586 -1.0335398991527467 17.854431305737897
-4.809559076052409 -0.9785061722286338 18.671569714406697
-5.386987776084401 -0.9263898538096061 19.486345748500614
-5.964814586508774 -0.8791896176792225 20.301139167020935
-6.540004264255634 -0.8388043556253281 21.11816172804499
-7.1094165058737575 -0.8065885508382004 21.93958235173138
-7.66976017638563 -0.782987672050825 22.767506242821465
-8.217867181365909 -0.7672924205111072 23.603767189040198
-8.75109035107659 -0.7575343757130867 24.449685525432912
-9.268214324058661 -0.7511744909998971 25.30557240372564
-9.769864952295144 -0.7462838229873184 26.17062889237614
-10.257673125947862 -0.7410976867022533 27.043564336557456
-10.733275806514667 -0.7337043025926785 27.923193478928876
-11.197858591585234 -0.7220645588030702 28.808646669210887
-11.6524344050245 -0.7038065085629618 29.6991675692674
-12.097804120213855 -0.675391622884593 30.59406332356733
-12.535507110760795 -0.6341885687027542 31.492238362405725
-12.968495039802795 -0.5807536076586923 32.392052875648396
-13.3981149146577 -0.5156885072640179 33.2927155737992
-13.825103669284246 -0.4396712953518659 34.193771613630005
-14.249830859259774 -0.35459607941939797 35.095086775895425
-14.6727668087078 -0.264021072591325 35.99670828784076
-15.094153937856081 -0.17142900215020473 36.89884995957508
-15.513905083164492 -0.07910146925585648 37.801781076926744
-15.9315410245476 0.009700611522246605 38.7060456460184
-16.346936472837147 0.0908053802359543 39.61206365799842
-16.759650966383404 0.16023898985931792 40.520273832281624
-17.168733486754785 0.2097389556339403 41.431427630997796
-17.57244907484698 0.23418709899063983 42.345985454329806
-17.968215107252362 0.2314651438998761 43.26433279523878
-18.35250086964136 0.1999989878663911 44.187010601327984
-18.720332659550873 0.14124578774269642 45.1150449949833
-19.065921022016237 0.05894842345419643 46.049815462830715
-19.38407120278614 -0.04116419625886669 46.99255504821486
-19.670714814722757 -0.15273556884138095 47.94407344980044
-19.92369540519554 -0.26889504163027655 48.904546144740515
-20.142805428187472 -0.3839912069972704 49.87343399714774
-20.32775636346241 -0.4939330248057642 50.85001269251125
-20.477677449036708 -0.5947730860321607 51.83355473541134
-20.591734839553748 -0.6821983926811542 52.823174726835205
-20.67069044697821 -0.7531215162371382 53.81752673824832
-20.715925833708734 -0.8052762678642306 54.81514071252397
-20.7289386379632 -0.8370641534575348 55.81455063705691
-20.711776372762806 -0.8475193507172035 56.814348689417216
-20.668090905491198 -0.8367304173380269 57.813335765843036
0.0 0.0 0.0
0.1687084005258418 0.08040168830104688 0.9823813129891841
0.37791261342791704 0.14651442311152557 1.958015826318793
0.5997974378793124 0.2042909237986264 2.9313754724139693
0.8126141144714129 0.25499354305941285 3.9071512184562605
1.0000149387455557 0.300093033708242 4.888398876799753
1.1492470918782627 0.34001009308685864 5.876395027015906
1.2492498243331616 0.3759455188297928 6.870733047348141
1.290126703181556 0.4104468977835836 7.869301390340198
1.2646324657566956 0.4472540757674664 8.868298525224471
1.1695744561444115 0.49042014295552266 9.862833927033812
1.005241498815343 0.5428671107260314 10.847843568969951
0.7739912215730146 0.6058140848904463 11.818699370682488
0.4789365934992732 0.6790252941337835 12.771370817348858
0.12374178784129514 0.7610611853514722 13.702556493025686
-0.2864080368549677 0.8496136549001467 14.610265467002728
-0.7447011131363026 0.9416794309767502 15.494285460615997
-1.243407930350517 1.0339487535643364 16.356131086336344
-1.774299478903787 1.1232786883259145 17.198849501010073
-2.329029137124705 1.2070612392204976 18.026651101911945
-2.899551984425975 1.2832416752947835 18.844392027796655
-3.47862578579097 1.3501948515073492 19.656913291990858
-4.060042262775644 1.4068390019673045 20.46854517930764
-4.638500618361282 1.4525536135139605 21.28297510578646
-5.209403064282294 1.4869137576305462 22.103273696384843
-5.768552868613592 1.509558543475429 22.932031025155037
-6.312082449440882 1.5203835170613986 23.77135123503478
-6.836689502279806 1.519724034339906 24.62269546928682
-7.339984149926534 1.5086952205370803 25.486739948996203
-7.82065809498645 1.4894634026133613 26.36342843170821
-8.278441040794753 1.4650048395452686 27.252155922686022
-8.714342950399352 1.4386534067367969 28.151764241451474
-9.13027992477265 1.414099638943372 29.06082614574421
-9.528785206011497 1.3956908518971425 29.977807420026423
-9.91299179601626 1.3876654864971638 30.901019686900682
-10.286643698585662 1.393843829006293 31.828568113555647
-10.653567717492233 1.41787700923392 32.75850852594646
-11.016470330165019 1.4619442857775244 33.689293017036256
-11.376992003599296 1.5258398072131039 34.61985278691921
-11.736379752428428 1.6057683065354207 35.54961183150421
-12.09539491511008 1.696288679593086 36.47854357012991
-12.45387721532031 1.7925745907502035 37.40710130325619
-12.811356595590304 1.8901485177144703 38.335911198476175
-13.167568894568022 1.9824193441056228 39.26574929871411
-13.522367083375666 2.0629121405503077 40.19722079851393
-13.874086793910058 2.1249620611152715 41.131267399374664
-14.220624672442698 2.163191506539448 42.06852403885217
[...]
CELL_DATA 87
SCALARS quad_param_group int 1
LOOKUP_TABLE default
3
3
3
3
0
1
2
3
1
0
0
0
1
0
0
0
1
1
1
3
2
0
1
2
2
0
0
2
2
1
2
3
3
2
0
0
1
1
1
2
0
3
3
2
3
0
0
3
3
3
2
1
3
2
2
2
2
2
2
2
1
1
0
1
3
3
3
2
3
2
3
3
0
0
3
1
1
3
1
1
0
0
0
1
2
1
1
SCALARS single_component_feature float 1
LOOKUP_TABLE default
-0.3566581268881899
0.36766794281829035
-0.5693755144024125
-0.5844997617229444
0.20110126959726082
-0.45739042534450114
-0.0888380923384049
-0.6982840083844439
-0.6751473319173186
-0.3838232288465262
0.09984819929655275
0.42724323191751157
0.08092439677865776
0.35387287231752856
0.17049423337983965
0.43888610771769954
0.3421777186114072
-0.5614884705927218
-0.2695193718076384
-0.17154628106763947
0.6027965980288033
-0.06460053189880849
-0.18875173791453653
0.626255275527218
0.1528029760881641
0.8132812348156351
0.7467820644171804
1.2775114947023896
0.4195711260359419
-0.6508542536728301
-0.42874037810039584
-0.609151918975847
-0.6034934312787634
-0.19424596643446795
0.12139290986918724
0.8765202689931593
0.3926933175958751
-0.24206238986893655
-0.165541422220855
1.161094623934468
1.4101377105116724
-0.5661460673274731
-0.32191281964770224
0.7352364889922144
0.022121639917984118
0.5774935731716758
0.5259301032944612
-0.7818810325898956
-0.685496375808301
-0.5782834655744209
-0.4328413981905039
-0.5096610337988124
-0.5316387457848711
-0.5623714481092746
-0.43457253339733426
0.18773444843555073
0.26867322085993456
-0.043011823622610065
0.5840322754954678
0.7161887692207589
0.2634422223450922
0.21987975461865808
0.8173835515544717
0.8600986640307088
-0.6415967820786379
-0.5882048171970031
-0.12609550106305648
0.44957490851143467
-0.5787545344904029
0.11084904493036345
-0.6907243451780432
-0.38565108788919894
1.1073495360598171
0.9040210660506017
-0.68000332025711
-0.5249668938850892
-0.45313106777802337
-0.6986572065629805
-0.29798916106368045
-0.370493323365126
-0.12606505284392275
0.05323729932971545
-0.012172507179568151
0.9563147081463628
0.22772083677305513
-0.569333665208301
-0.5146690311232465
POINT_DATA 5568
SCALARS single_curvature float 1
LOOKUP_TABLE default
0.013526506764012097
0.020244450032257853
0.022036342760986944
0.031626261570955314
0.04244189786824821
0.05157586095342744
0.058779287532593455
0.06386675817522042
0.0666539434755316
0.0674062355431503
0.0665883107120201
0.06424798810693409
0.060250824196926914
0.054507568211984665
0.04716923603898665
0.038819446551452835
0.030242490624367548
0.022292136948980468
0.016015428054510582
0.012336828995412922
0.011467379594238117
0.013001314169091642
0.015981405263295004
0.01925087541429227
0.02204012524659786
0.023890001419668586
0.02460439910948396
0.024182239961490878
0.022919805539460086
0.021279378613487804
0.019725470773308235
0.018595058792626917
0.01805323622455554
0.0180771224306762
0.01814170051818864
0.01738252522982304
0.015260919033360553
0.011829335534137047
0.00770189709821622
0.00536414793464883
0.005778608886939616
0.008918728890141373
0.014478248977141901
0.019867646235525765
0.02393446716413493
0.026503171930160194
0.027467840885907563
0.027667141001866992
0.02752170582143562
0.027315499854121312
0.02726253233674742
0.027410356070714702
0.027891200448495548
0.028451271386278763
0.029042189541708046
0.02953919638225646
0.02988019770932165
0.029965128071257667
0.029573578260350467
0.02856840011716415
0.021025072799510876
0.013481745481857602
0.005938418164204328
-0.001604909153448946
0.02191421225237601
0.029939092987689243
0.031694293225997885
0.035347130416868246
0.03981382211664172
0.04429310375158274
0.048111350919452595
0.05181594174873146
0.05544574881927656
0.05859062868468965
0.0603857980422629
0.059515955889150374
0.055362960902857465
0.04817413171227171
0.03900615792462255
0.029335049057390795
0.02046146870485813
0.01330283110222398
0.008620954204195067
0.006715005346412449
0.007179097412655101
0.00939951103890036
0.012362251083843366
0.015128938256537506
0.01720526718906762
0.018191953765087174
0.01797836544936898
0.01682506076983385
0.015308018992009067
0.014052844654296051
0.01366767612458281
0.013960655559668238
0.013971551759251095
0.013750041970133235
0.012970544473985364
0.0114891126646196
0.009634614754994818
0.007249359813500446
0.004890759204710308
0.0036364278946480182
0.004239915556007067
0.006634376916948389
0.011293443144822978
0.016672655468130813
0.02175890800803651
0.026525057740148947
0.02948109971384697
0.03128818800433956
0.03256377769685542
0.033413127363506635
0.03411785026286335
0.03457552893709885
0.03500491731267616
0.03555417200775028
0.03646138169227266
0.037499035022072344
0.03833180850746314
0.038657435099234826
0.03820496242895423
0.03693664445766413
0.02726622911519324
0.017595813772722346
0.007925398430251453
-0.0017450169122194409
0.01763704887903539
0.02428230537223978
0.02319262079256207
0.0317950076391748
0.04365708919273822
0.05357927513632742
0.061267589310749986
0.06642543965408029
0.06888645821426015
0.06906575053838276
0.06769295522271662
0.06510207159540898
0.061265853081071374
0.05603121252518453
0.04932781193872071
0.0414872735990435
0.033113364838740694
0.02500379061160451
0.018272240209265916
0.014024253831576731
0.012684158186771405
0.013935275656839151
0.016845663795538604
0.020225684584304494
0.023234148744664878
0.025371459779870844
0.026403509328056244
0.026233763433756944
0.025053227847500203
0.023286215887431697
0.021375250888886182
0.01980347948011284
0.019070537761569993
0.019156219747798475
0.019464677205607822
0.018933304547094333
0.016784417723272015
0.013123260632586373
0.00854401637901602
0.005908159514624601
0.006244100533601154
0.009511778911717174
0.015244477340984452
0.020608297894172664
0.024414582089030364
0.026461406623642603
0.026986767625063718
0.02684623840350495
0.02639087384369602
0.025932598042231553
0.025673846894003753
0.025701624255894173
0.02613738877992625
0.026658492570091806
0.0271614605996886
0.027533707555700962
0.02776718037194747
0.027809051147140947
0.0274516413608777
0.026543119397026037
0.01953104917692658
0.012518978956827121
0.005506908736727663
-0.0015051614833717954
0.01794360039842972
0.024588117505211757
0.023299176676235208
0.031825586046631396
0.04374417950554944
0.05371309680085439
0.06142965993817149
0.0665898843150419
0.06902843797241574
0.0691697442616737
0.0677606149682041
0.06515414842231473
0.06133054982422772
0.05613281696614936
0.04947561348247682
0.04167286692869397
0.033315193443133155
0.025195789588625436
0.0184326872719832
0.014144101729734447
0.012769807322000793
0.013999843499249091
0.016904296758828517
0.020291682624124233
0.023315838022388694
0.025473929183092398
0.02652891086593637
0.026377219605689863
0.025202233209282093
0.023425834131744244
0.02148937656562941
0.01988624139736768
0.019139588539052312
0.01922960845633958
0.019555235964647893
0.019040117789085653
0.016889980834581993
0.013213637700056827
0.00860426685327032
0.0059478133888876215
0.006277950782311969
0.00955346335796505
0.015296443482010431
0.020658038439296818
0.024446498927244455
0.026458193195263227
0.02695445927643063
0.02679166136447808
0.02631584915570146
0.02584061263244113
0.025567667521474862
0.025586712360008094
0.026018618736864892
0.026536497130757144
0.027033358133087944
0.027397261866106224
0.027623645014496722
0.02766285748389357
0.027308088346431895
0.026406637128547725
0.019430638923064306
0.012454640717580887
0.0054786425120974674
-0.0014973556933859516
0.01579740285887422
0.02337103289325121
0.027845621816720387
0.033817674923064166
0.040012123369098304
0.045804745998997205
0.05068074492181942
0.054949070611904925
0.05849940082097585
0.06106688277860775
0.06215754965547471
0.06084565371705274
0.05665630346815192
0.049745281938860526
0.04093921716241303
0.03150421308023288
0.02264112474987288
0.01527487119099739
0.01023733969136595
0.007967936031450176
0.008180019861886951
0.010291048608053873
0.013300098772595156
0.016203759037473096
0.01843793749178223
0.0196009391519419
0.019567729736475407
0.018549103328573926
0.017075150404150103
0.01573221932837009
0.01508787596869742
0.015076404420171137
0.014984553553149772
0.014828231314302047
0.014242086837245756
0.012913718579874767
0.010969512920310244
0.008303227802270437
0.005526876764884612
0.004020817042134179
0.004596119874722428
0.0072123652938342825
0.012111019186724229
0.017509148216630046
0.022345016678111274
0.02654709766945612
0.028970074997754936
0.030337511530989725
0.03123122220464008
0.03181138304047995
0.03233910950074274
0.0327474594052602
0.03322665101835797
0.0338049580694227
0.03463894843274117
0.03553544845108264
0.036236496246247134
0.03649253718007484
0.03604518056483993
0.03482527317019238
0.025682275298001267
0.016539277425810156
0.007396279553619045
-0.0017467183185720658
0.015408821827331685
0.02207718431569376
0.022489592827594853
0.031643686111576336
0.043013019427329345
0.05255163303647531
0.06000621239959683
0.06513654828892124
0.067767297757913
0.06823915927774411
0.06714795976666108
0.06468131893990135
0.0607562032143068
0.055251072555952296
0.04820968786137357
0.04009564164670971
0.03160883431703127
0.023578230313969654
0.017083706733237728
0.013136083946237305
0.01204638437375147
0.01344974376770231
0.016400156054786078
0.019723645717195412
0.02261633009353367
0.024601106508632283
0.025464646693196737
0.02516149784370005
0.023938633833660114
0.02223950110503853
0.020516910752878814
0.019177572849749424
0.018545763884952958
0.018599127930943832
0.01877971644786772
0.018128155343851714
0.01599129365249266
0.012447184535451178
0.008099484678723887
0.005618685970009359
0.005996749278738039
0.009201457852581215
0.014849526813004589
0.020228165502426447
0.02416930539763236
0.026484305237989888
0.02723376350668213
0.02726576877832222
0.02696824164301644
0.026639481199226232
0.02648766610935899
0.026579386916797645
0.02704115953374399
0.027584365201610353
0.028133172945182177
0.02856934229310772
0.028857564179848166
0.02892074763006722
0.028544634971573092
0.027584522176611722
0.020298357737250722
0.013012193297889722
0.005726028858528721
-0.0015601355808322788
0.010744972710722644
0.017745509059435043
0.022910679117476896
0.032165341758034566
0.041048492863466256
0.04881032783613831
0.05511689388606764
0.05996719574279967
0.0631664586015792
0.06474233117779733
0.0647529440966257
0.062828530345348
0.05868778179661831
0.05234552077682551
0.04425958310409417
0.03533779769312216
0.026576968977337124
0.01888024991084875
0.013197319320140396
0.010219610316673696
0.009904731971192708
0.011750571595207138
0.014776067657051936
0.01788544966027951
0.02040391016609444
0.02190899291972483
0.02224364583724269
0.021516366800231737
0.02014659871002804
0.01865305774668682
0.017542234940995795
0.01696129036909127
0.01664951063411405
0.016591744565080817
0.016344652564869812
0.015304444186965716
0.013246610657219087
0.010150606040255791
0.006652532177200837
0.004708292302981295
0.005210293888591868
0.008137163933644127
0.013410746468743483
0.01881602046751473
0.023237151475166584
0.026540780569159816
0.028146097873319804
0.028851714472653556
0.029161339265899908
0.029309825198688553
0.02953027230062162
0.029816818609376742
0.03032326714078293
0.030910599843737993
0.03161677528826326
0.03229188811513993
0.03279077028849116
0.032946535519552365
0.03252135237194389
0.03140448836145523
0.023128841865377944
0.014853195369300659
0.006577548873223375
-0.00169809762285391
0.02027069704715003
0.026926094533474013
0.024169550454841624
0.03212693657137877
0.044395914315470845
0.05468016936175848
0.06258656320697696
0.06775630359789767
0.07003002183448717
0.06989690860198544
0.06822662476307798
0.06551123704448414
0.06178654743974404
0.056868677943890326
0.050562565860974684
0.04305008535926837
0.0348217782425004
0.02663482134813912
0.019638168140302312
0.015044398930977424
0.013410400234125118
0.014478261407775951
0.017334318144807022
0.020775160036536063
0.023917703409434752
0.026233288690259562
0.02746179865945593
0.027445870390703557
0.02631113510573283
0.024462399392481137
0.022333895295007063
0.020495309408984193
0.019645355542400888
0.01976787104176425
0.020221839742487983
0.01982901728223235
0.0176721400220426
0.01388607718333234
0.009059079539257608
0.006250468253868345
0.006536207768223509
0.009865872895037034
0.015677412868172626
0.021020598928402117
0.024677897476382857
0.026433336528604374
0.026719230051624375
0.026396370806539716
0.025773050917974633
0.025174157315299053
0.024796379544771475
0.024749206306314744
0.025149760834765427
0.025641761907323667
0.02609335218185824
0.026396619635272192
0.02657188816198358
0.026592691534601882
0.026258586283876607
0.02541098360951581
0.018699232703890543
0.011987481798265275
0.005275730892640006
-0.0014360200129852618
0.019795526151005157
0.026446470149393175
0.02398371177182835
0.03205593740858734
0.044264125356464186
0.054489280885784766
0.062360164460532046
0.06752905810731422
0.06983566403398567
0.06975674816072394
0.06813786934970915
0.06544348937815193
0.061698163420191916
0.056723113841586764
0.05034514648457779
0.042772828542163015
0.03451720389096888
0.026343068732946288
0.019393341168100726
0.014861561002961494
0.013280686214316592
0.01438201082527791
0.017248426331009283
0.020678671783402578
0.023797098977941758
0.026080506675601196
0.027273607384341318
0.02723010329038765
0.026087409410046645
0.024253629009811643
0.022164203945672117
0.020373404269796825
0.019544462004491392
0.01966038638271622
0.0200883821101498
0.019670700565282053
0.017514824331973367
0.013750437354131203
0.008966394162479996
0.006188313390626964
0.006483177582297639
0.009802495962025051
0.015601344534610208
0.020948509078027696
0.02463206165209154
0.02643847446301128
0.0267659526163697
0.026474596638467105
0.02588038515757537
0.025306079079769717
0.02494933577080431
0.024915689149123347
0.02532293288578328
0.025820413083198913
0.02628111036415477
0.026596407618981736
0.02678175812178201
0.026806082981809427
0.02646766679094319
0.025609029379355313
0.018844560304095995
0.012080091228836676
0.005315622153577358
-0.00144884692168196
0.014015841097240689
0.020717565510403962
0.02213617933100407
0.03161955165102693
0.04259455660781049
0.051843419180874144
0.059118699831038936
0.06421968630992239
0.06696445790796424
0.06763950606943968
0.0667459421324821
0.06437009995072718
0.06039154218789746
0.05471194201415635
0.04745295744708051
0.039165724786941546
0.03061198763431477
0.02263914395592789
0.016303309951677693
0.01255233335317802
0.011624011093171233
0.013123371218727135
0.01609608138919166
0.019380428010511392
0.022197497671578376
0.024083513959877508
0.0248378649186477
0.024447661221663905
0.023196005860177404
0.021539957485769184
0.019940645745281524
0.018753943021520218
0.018187977634981246
0.018219860536899245
0.018315806717528187
0.017585586028641777
0.015459430782042243
0.011996803031531113
0.007808921879135107
0.005432285155639221
0.005837086743342686
0.008995403006761108
0.014579920188943758
0.019966661641674478
0.0239991794103473
0.026498277133905367
0.027403593024180585
0.027556604591436055
0.027369178061904708
0.027129348202779634
0.02704948609583271
0.027182339811026777
0.02765848183344235
0.028214312715772093
0.028793797862115483
0.02927407892318563
0.029600507138426227
0.02967932339973509
0.029291799166343974
0.02829863405610439
0.02082564953992037
0.01335266502373635
0.005879680507552328
-0.0015933040086316928
0.01294014529541373
0.02028192631481114
0.025825586050629092
0.0331025478247442
0.040292095004465976
0.04682524042163833
0.05226031813101385
0.05678221666994832
0.06023160389023272
0.06244546307055993
0.06313680557922523
0.06158936650189324
0.0574020253618184
0.05067829455761566
0.04211155586358828
0.03284191610250835
0.024002735410023186
0.01651565242608649
0.011254687568150764
0.008746622612993093
0.00878558684977127
0.010813877517142847
0.013837349312705464
0.016817207386899524
0.01914944514109517
0.020427432991137993
0.020516056526010976
0.019592521086119585
0.018151941259874696
0.016756669630894602
0.015951357358668664
0.01574554393085629
0.01558173377885785
0.015461546852690196
0.014993665424504766
0.013763298741603593
0.011773594563334235
0.00894887454271197
0.005918294981174268
0.00425865236895445
0.004811474475317351
0.0075465856131368666
0.012582671105776886
0.01798659467972369
0.022674246759894785
0.026550328412345888
0.028672221734397152
0.029794099317544148
0.030472431223759863
0.030896312104704438
0.0313160661306482
0.03168631167906367
0.032182778090719344
0.03276966922982125
0.03355890270677477
0.034374604685650095
0.035001193490467396
0.03521927103686331
0.034777820730323955
0.033591411113373396
0.024759377718741177
0.015927344324108958
0.007095310929476739
-0.0017367224651554797
0.024368948028766713
0.03257477401899545
0.03321762164776974
0.03600597447594089
0.039837637012301856
0.04382829676758274
0.0472303385980252
0.05068394466824352
0.05430650648577094
0.057649417400793344
0.05970848985606952
0.05901344465641556
0.05488612682855702
0.047607703189646924
0.038320556122191346
0.028576824288131332
0.019708765206466746
0.012626137527220428
0.008065851464315784
0.006278579394278732
0.006820723391267619
0.00907117017537504
0.012009995599829373
0.014723848889831184
0.016744996498281914
0.017673176383870167
0.01740234577493767
0.016209069744076342
0.014681381991999988
0.013458622829598995
0.013164114160132473
0.013560119849948675
0.013601892542679688
0.013354846466944546
0.012506747404311841
0.010973518073997959
0.009155860175143214
0.006877340008185148
0.004666909273136927
0.003501854688660594
0.004112422005935482
0.006419324761503902
0.010988755815640586
0.016357846797466935
0.021535215345676866
0.026511116079459714
0.029669405172765992
0.031644853820553404
0.033065453599805214
0.03401445039522326
0.0347817139566972
0.03525228166563251
0.035656654932691774
0.036190506634786096
0.037123612360020763
0.03821422892069441
0.03909692239253993
0.0394496286397867
0.03899677881452553
0.03771336549381386
0.027850389560915234
0.01798741362801661
0.00812443769511799
-0.0017385382377806333
0.012519984219351223
0.019822161183404702
0.025478096898687703
0.032985932325785644
0.04035547110384332
0.04702110335585722
0.05255346916245885
0.057116198207416605
0.0605435508013922
0.06269188838963165
0.06331121261169513
0.06172242526716642
0.05753734047969658
0.050850042671080745
0.04232954818681596
0.03309252606651066
0.024259235582793234
0.016750150573800294
0.011447073258084388
0.008893223915072447
0.008898416963711787
0.010910006171747352
0.01393509743514369
0.016928652006083268
0.01927937052035969
0.02057942142817711
0.0206916818474855
0.019786816258164124
0.018352914577947774
0.016947869599339388
0.01611222430714334
0.015869471115352033
0.015691562585637222
0.015577896575622195
0.015132150828676484
0.013920449112117124
0.011922958372900711
0.009069643933778864
0.00599170033267433
0.004303378774393706
0.0048516004621179335
0.007607649152980932
0.012668688319762636
0.018073276682302908
0.022733610449204876
0.026550215126156487
0.028617720402991976
0.029695463905721625
0.030334921986687517
0.03073024250592162
0.031129859654800633
0.03149240266481624
0.031991114450128595
0.03257892184875224
0.03335979275633762
0.034160811976769935
0.03477394972413684
0.03498528841985403
0.03454516688682209
0.03336533065716136
0.024590501080737157
0.015815671504312956
0.0070408419278887545
-0.001733987648535447
0.021362752658668258
0.029347138995791767
0.03135230190483728
0.03520310378494525
0.03981595003233711
0.044407376575967925
0.04831936798940709
0.05207823247516496
0.05570668056011492
0.05880476289573069
0.06053959642167943
0.05963052226607413
0.05547254946637672
0.04830521687587581
0.03916563213564447
0.02951226762695538
0.020638134173841464
0.013461995893019609
0.008751462445319531
0.006817081445291326
0.0072621010378642525
0.009474835063404732
0.01244254129812106
0.015221162162183964
0.01731037532860016
0.018310979414261103
0.018111240420639822
0.01696787019125564
0.015453696160727259
0.01419111144220322
0.013784782148017441
0.014053414854339193
0.014056675268631205
0.013840892386435974
0.013077328467386164
0.01160813009983453
0.00974546788994493