# vtk DataFile Version 3.0
vtk output
ASCII
DATASET POLYDATA
POINTS 5568 float
0.0 0.0 0.0
0.14024370942119296 -0.028802881013127057 0.9896979822214087
0.2826547719712874 -0.07148943291879345 1.9785847035144788
0.4165361530031022 -0.12213212867817308 2.968287231135398
0.531288898779323 -0.17590781512575632 3.9602247205387924
0.6177431076770667 -0.22865738128284557 4.955083078816042
0.6676015864120444 -0.2765552493270806 5.952690178998799
0.6736155383027804 -0.317001951336151 6.951853777554734
0.6287974462827319 -0.3484657590651051 7.950353335607154
0.5276409517343292 -0.3699385754894707 8.944992105093586
0.36704791318159463 -0.38028645707386327 9.931958567196082
0.1453894601945671 -0.37805355962005643 10.90708037722207
-0.13738608804487035 -0.36188641412961003 11.866130226147858
-0.47967177231525154 -0.3313076252036912 12.805228436140498
-0.8777758897188082 -0.28724486744025773 13.721509825826338
-1.3255482962161536 -0.23223010722314436 14.613963324972277
-1.8149365540043971 -0.16976582757774977 15.483789369022103
-2.337075228657005 -0.10341261928982809 16.33406488682908
-2.883381428033788 -0.03617115417320255 17.168946987422608
-3.446359346469859 0.02947165148058334 17.99280794985455
-4.019806398050274 0.09131504647761868 18.809713007697244
-4.598622188941125 0.14753584862435065 19.623230986368505
-5.178478840248335 0.19652916932586592 20.43647505702714
-5.755504425576667 0.23690480826238036 21.25220251252742
-6.3260280816901275 0.26768646788784856 22.072906629274517
-6.886440051924998 0.28850152473932544 22.900859017413918
-7.433334202526792 0.2998036411603484 23.737984486027763
-7.9638678877463 0.30301153383499135 24.585642269730595
-8.47642481923441 0.300248676014671 25.444291067901396
-8.970867179814464 0.2937086871365448 26.313476882678362
-9.448048888779526 0.2857076622241062 27.192245111638382
-9.909330320016776 0.2786681221199118 28.07947106147914
-10.35613429944324 0.2751598284749571 28.974096064396214
-10.790010965120718 0.27819706626567076 29.875063219273237
-11.21262641438041 0.29145583613408677 30.78127532858794
-11.626373398245708 0.3179435871332218 31.691281829877564
-12.034579918271097 0.3587581852758097 32.60325858703052
-12.439173481245737 0.4143932778647916 33.51606129587406
-12.841250144666404 0.4843761839538556 34.42898886670749
-13.241469645503265 0.5661830531689603 35.34174950745572
-13.640338915811185 0.6556229018590081 36.25438515143985
-14.037878044582117 0.7486760481529378 37.16723987868885
-14.43378853007681 0.842201573018815 38.080753898107226
-14.827648618951248 0.9317950368603087 38.995547449477534
-15.219276637214348 1.012402921354573 39.9121334324975
-15.607719962260425 1.0787475283502497 40.831214591236886
-15.991565963879722 1.1234693139509084 41.753528100263814
-16.369000394607205 1.1426157942204822 42.679366456995005
-16.737714700746793 1.1351831978573448 43.608879510673816
-17.09462315050788 1.1009450452476317 44.54239121782859
-17.435688483684075 1.0418165596940734 45.48056937825525
-17.755945206868702 0.961659447121888 46.42450288680293
-18.051236079858032 0.8664322772285775 47.3751527100519
-18.318484446664645 0.7619196254493652 48.333096036171604
-18.555908632989674 0.6536957148866642 49.29845469539128
-18.762825163180853 0.5463773111618313 50.27090948084693
-18.938861981138995 0.4436474144277033 51.2499179624446
-19.083653966902514 0.34888859788465526 52.234832196043655
-19.196886433856804 0.26561668218133333 53.22490501987155
-19.279201324030282 0.1966786708289126 54.21912421574663
-19.331837433857086 0.1443534077584307 55.21636616572011
-19.356445541205638 0.11033772978860273 56.215484464373965
-19.35521461721258 0.09557422912729102 57.215374720289255
-19.33147858745535 0.10016862118848041 58.215082423797114
0.0 0.0 0.0
0.13569834511902357 0.029579538087686208 0.9903085428584758
0.2653883797400449 0.045900922084179785 1.9817287904550427
0.3831871569883542 0.0526464028796127 2.9747433656590734
0.4812551554100839 0.05425472386435598 3.9699217823207116
0.5517334936900578 0.054198687499045384 4.967435090850086
0.5875220996206585 0.05507516250897465 5.966794089147045
0.5815215387896121 0.05923924113274537 6.966767415650771
0.5259213084358084 0.06807812908388161 7.96518140215356
0.41447424621744966 0.08234958532058084 8.95884929328207
0.2443199732326431 0.10295918942204563 9.944051185080797
0.014849543680009902 0.13090590032676674 10.916965520112683
-0.27311506833115495 0.1672687024183182 11.873915951876684
-0.6174538547697567 0.21299390926020045 12.811647259668664
-1.0143674607612616 0.2679026574229102 13.727859363252778
-1.4580001862211809 0.33005642445919864 14.621910208643689
-1.9407062007190903 0.3963323214944578 15.495181305749115
-2.453965707810912 0.463408180252983 16.35078957332936
-2.9894947358774333 0.5285274328267138 17.1927920335647
-3.540196285569336 0.5895018121301213 18.02526421222024
-4.100374949043219 0.6445407441234697 18.851805548726556
-4.665417122316388 0.6923389097830104 19.675481867302196
-5.23144637389696 0.731729781610257 20.498925396374972
-5.795062750379432 0.761633305231178 21.32442061709755
-6.353097443083301 0.7813379445600286 22.154004252982336
-6.902449788340516 0.7908720274084738 22.989540668720537
-7.440132303308098 0.7913604228665729 23.832687912425936
-7.963578243838903 0.7851839049371514 24.684724412799063
-8.471231521395016 0.7754889608067226 25.546231323882687
-8.962708413370464 0.7651467715419202 26.41706052859241
-9.43846204578589 0.7564662518496497 27.296596275348275
-9.899551229632946 0.75123977723047 28.183934682328562
-10.347272297423228 0.7511164569280253 29.078107948675097
-10.783120421023055 0.7581163715192925 29.978100956620285
-11.20863498874456 0.7749035408898319 30.882896814038578
-11.626063338395307 0.803475765158539 31.791157349847655
-12.038857989434208 0.844509913302012 32.70105667106941
-12.449137638632033 0.8985838060774807 33.61141188941784
-12.857958322037028 0.965428253267419 34.52157531908316
-13.265629032637051 1.0433349459220442 35.43137482389644
-13.672220893397888 1.129280378541571 36.34093320100859
-14.077378812226636 1.219903454226466 37.250677406246396
-14.480517876794389 1.3122297102768068 38.16114693185566
-14.88095707778757 1.402574621861423 39.0730056069028
-15.277929505757799 1.4865437014988119 39.9869870537037
-15.670063950438223 1.558208495515348 40.904099224920365
-16.055638844573785 1.6090228655724086 41.825375459720796
-16.432984062774953 1.634050639250485 42.75110986917387
-16.800012863377205 1.6316202946634497 43.68131627258854
-17.154398941147228 1.6013397518420311 44.61592506593965
-17.493029478575142 1.545297310668767 45.55517402330326
-17.811428429741884 1.467031454253249 46.499894385958505
-18.105555196285323 1.3722549666892943 47.45095004290385
-18.372252073964773 1.2667874712949272 48.40894241388144
-18.609660536256285 1.1563865126532176 49.37405839155634
-18.81689061337158 1.0458753909435539 50.34608873425005
-18.99342922333477 0.9392178965953133 51.32458671487731
-19.138898749072823 0.8399391435973298 52.30895572408306
-19.252853597510008 0.7515693910960013 53.298503640740215
-19.335852567917872 0.6769314603331646 54.29225428864072
-19.389072977905 0.6182769092535214 55.28911297050011
-19.414126408927444 0.5773065714243906 56.28795918339385
-19.413295749034976 0.555038872159278 57.28771088235394
-19.390147217535407 0.5516674222695028 58.287437234319846
0.0 0.0 0.0
0.14294341326471116 -0.06674355959921469 0.9874778366405293
0.29334782417523697 -0.1476536085640095 1.9727859494434088
0.4374068039686675 -0.23533431093530865 2.958462927348722
0.5627545135410186 -0.3247499171748302 3.9465382286622326
0.6593930818659188 -0.4112998220715551 4.938087572403875
0.7182777020291151 -0.49039614799172415 5.933213882343556
0.7320924294115165 -0.5593802982731452 6.930735982508409
0.6943944602692742 -0.6167074580415466 7.92837943578991
0.6001429375404157 -0.6612413665879044 8.922931285344712
0.44606131609213406 -0.6916944633657625 9.910519996716255
0.22981673221823506 -0.7062867337127223 10.886750167112215
-0.04926859220010871 -0.7034556306149846 11.847012301401367
-0.38996465819394294 -0.6829857555077625 12.78696292501381
-0.7886703789049635 -0.6462527043956376 13.703305890954129
-1.2390427906472397 -0.5961422864816229 14.594739363939032
-1.7327521806746806 -0.5363857627564429 15.462310799655432
-2.26069205949838 -0.47068884070510364 16.30904771203176
-2.81406581493506 -0.40220666640864466 17.139160763728658
-3.385095368412334 -0.33362173011199214 17.95722026985809
-3.9672271761118223 -0.267407260835963 18.76761412627793
-4.555032343417949 -0.20573331893090646 19.574262383065303
-5.143888623898487 -0.15049946392365177 20.380610634256847
-5.729626370150304 -0.10330274715663007 21.189735941327548
-6.308265729835483 -0.06529269299589596 22.004433263776704
-6.875884936274578 -0.03710184109146386 22.82724169369849
-7.428810939536238 -0.018714840262175236 23.660269156101496
-7.96399871366271 -0.009355094834187172 24.504950422373618
-8.479750955155112 -0.007600689599252641 25.361686407060752
-8.976056289744506 -0.011723302569838445 26.229824655797902
-9.454027144182842 -0.019384773989447213 27.10816693769214
-9.915242551769094 -0.027728903661917714 27.995415901233407
-10.361235851288223 -0.03357434267197479 28.890433112032632
-10.793612672610786 -0.03325480769180239 29.792126065470992
-11.214126045104724 -0.022433206185252574 30.699347866628024
-11.625244436263776 0.0025816038095648475 31.61058654432543
-12.030190431289654 0.04322705443999819 32.52402329005857
-12.43075890799356 0.09997047895098593 33.43853139786619
-12.828072590886352 0.17217418074536656 34.35336934134764
-13.223046653602212 0.25670726198731936 35.26816420794751
-13.616495958300497 0.3485953486201199 36.182906917220116
-14.008683180810241 0.44341206474105005 37.097892694620036
-14.399506420875474 0.5378229271440473 38.01350384794072
-14.788791330702058 0.6267248285369666 38.93032101123449
-15.176799422185395 0.7045459804989018 39.8486856388475
-15.562765062649575 0.7666198448350174 40.769108020011416
[...]
CELL_DATA 87
SCALARS quad_param_group int 1
LOOKUP_TABLE default
3
3
3
3
0
1
2
3
1
0
0
0
1
0
0
0
1
1
1
3
2
0
1
2
2
0
0
2
2
1
2
3
3
2
0
0
1
1
1
2
0
3
3
2
3
0
0
3
3
3
2
1
3
2
2
2
2
2
2
2
1
1
0
1
3
3
3
2
3
2
3
3
0
0
3
1
1
3
1
1
0
0
0
1
2
1
1
SCALARS single_component_feature float 1
LOOKUP_TABLE default
-0.0034779392606592036
-0.026731192732207476
0.011753061949826248
0.011164629007739967
0.04544355190770759
-0.03142757899574433
0.04830738598259776
-0.0004200804363684151
-0.01860738900092236
-0.014399785591844044
3.2235069711748776e-05
-0.017330610544053625
-0.10104481687583554
0.07519257101974194
0.013611020089323727
0.06591827562950217
0.035656838450197466
0.06262582867859307
-0.0528209802983605
0.0013747060121424258
-0.013891120831655737
0.05401697870091116
0.02976626265880283
0.014599227612673725
0.013802307626084566
0.02578564441711806
0.10394703324967217
-0.016469210631881708
-0.033002178589084524
0.012785330320861417
-0.012833045044175937
0.04209239198725683
-0.04223794169817679
0.06390618090005738
0.07037133008474977
0.01006104052808185
-0.019836859569994786
-0.04523502271318705
-0.06357199801915168
-0.05312112299306028
-0.054065165169196155
-0.04932447019395208
-0.020948526673343525
-0.04366334518251072
-0.029330522944084517
-0.01920433179887622
-0.020063661544691788
-0.04722450835439408
-0.024134253059122285
-0.00949831469011566
0.005751283564256318
0.005478663916913564
0.008948665641499407
0.0296860929320983
0.020136505960019806
0.14743817245673846
0.056508646602416474
0.06940150090926443
-0.054199369100463385
-0.08785939142952429
-0.07389589434378653
-0.07952348594860179
0.025707437351185067
-0.043419669539564235
0.007831088228740984
-0.07229586830950326
0.012045263587853683
0.013532768988814003
0.037648987623639954
0.0274252494555821
-0.0014597536405436193
0.007191307660659431
0.009470125993366763
0.09457158340271166
-0.047123611161888956
-0.009224486736565285
-0.0030068850709090295
-0.023059704419884166
0.0078020504867730815
-0.02689843144080861
-0.03975298081847688
0.008925895237009589
-0.03480688254240233
-0.0029377328412486525
-0.026529042403834822
0.07507600649375136
0.027118034808008472
POINT_DATA 5568
SCALARS single_curvature float 1
LOOKUP_TABLE default
0.011319131470834872
0.01843365001424481
0.02416526181689037
0.032357864959708105
0.040371143174951024
0.0475720302262053
0.05353508695911942
0.05825570764293115
0.06151207832062733
0.06326561321486297
0.06347383745685474
0.06165923820630335
0.057488829322190446
0.05099980006793721
0.04274375638674166
0.03373300409289539
0.0250387433846243
0.017578953479665968
0.012240841269101861
0.009580255159033895
0.009450766823828583
0.011315735435981942
0.014214343840866452
0.017130692801726546
0.019451444188758684
0.020788959078886823
0.021011789610343976
0.02025259179095003
0.01893766678504999
0.017569097088465338
0.01664229295380946
0.016226678042201046
0.015939030556032196
0.015804005810706474
0.015424141778097467
0.01432390978327521
0.012390810191952603
0.009536192290556723
0.006349488851891276
0.004510935894802556
0.004930433702920369
0.007672569968730633
0.012802121627118064
0.018296654233808173
0.022989656971886544
0.026670657403308394
0.028551318382021386
0.02943459302059142
0.029862016812123502
0.03007800745423722
0.03034865401264161
0.0306474494777992
0.031140348510093157
0.031728300998099625
0.03248306658892285
0.03323066972235043
0.033791501790250575
0.033978484246312224
0.03354242982990937
0.0323830611920466
0.02385460173232946
0.015326142272612323
0.0067976828128951845
-0.0017307766468219535
0.012611887610900157
0.0195439658110881
0.024578508274973175
0.031214166091839964
0.0385368155094478
0.04566235553512878
0.05186743672813102
0.05662245498667946
0.0594523073851706
0.06044266422433015
0.059918667123429546
0.057727837515042374
0.05355322750154737
0.04732685201438945
0.03950314258145412
0.03106213535215466
0.023123459071005992
0.016597511275180894
0.012173492762974624
0.010076797973977222
0.009993426107088949
0.011357343577324628
0.013392662720638169
0.015406275218719555
0.017011563339036556
0.018022132801630078
0.018381542204575545
0.018108560790758156
0.017386349230322864
0.016471129735498507
0.015714348881199318
0.015149544151215106
0.014534357744464606
0.014101648974416785
0.013560225371425401
0.012665786057627002
0.011345600882356631
0.009247927657276835
0.006719168092872982
0.004843711806364907
0.004705488308240376
0.006878050290100466
0.01175524956413942
0.017705073425613525
0.023229352974921093
0.02755416950215771
0.02962725129130222
0.03040494519188035
0.03049486317495485
0.030331372843261296
0.030329135461470976
0.030432331729497376
0.030824355757523274
0.03137926083462495
0.032179580724115774
0.032969454741148936
0.03355310867123993
0.03376505199212902
0.033315151371277475
0.03209651620598237
0.023619493066989447
0.015142469927996526
0.006665446789003604
-0.0018115763499893175
0.011096198438284662
0.01835887726367353
0.023977445347153178
0.033208208757849765
0.04165974695776792
0.048890675662361806
0.054671848434111235
0.059375886711474264
0.06293832313805364
0.06521626478476765
0.06592429897939323
0.06436942940354097
0.06020754100091955
0.05355724049818967
0.045037044593021124
0.035678693992711626
0.02651516925849007
0.018437543160724115
0.012444875669565434
0.009365286686717475
0.009160129153405323
0.011326466020952476
0.014794246242553526
0.018294619347232546
0.02109924394891781
0.02271189978016429
0.022929838359273823
0.02191149734568979
0.020204931444007493
0.018474209695025286
0.01735021314923716
0.016975526243610258
0.016894795090001524
0.016981459349054706
0.01673694946419764
0.01550261549611184
0.013144042448542104
0.009764967848389748
0.0062032761972279716
0.004527380683579002
0.005464658432332222
0.008667797185724205
0.013927453253228556
0.01899828559341253
0.022998967803703307
0.026150611222728524
0.027840025155884837
0.02876730823877953
0.02941618576547507
0.029897843211051454
0.030361761340284867
0.030786740437792566
0.031327381580990125
0.031915420636840254
0.03262298497244966
0.03333304204285985
0.033877786258911066
0.034051551186925016
0.03362640428652811
0.03250453759192666
0.023957823260824875
0.01541110892972309
0.006864394598621305
-0.0016823197324804806
0.011097485589491576
0.018354008231468495
0.023983348634388283
0.03317395006151283
0.0416089512576565
0.04883909576885587
0.05462764531980565
0.059332240248336304
0.06288248043743574
0.06513979519170042
0.06582817374721399
0.06426299009289889
0.060100599726008744
0.05345632905012269
0.04494607395977116
0.03560083341545913
0.02645509098062935
0.01840131348228797
0.012434694530489518
0.009371905259382233
0.009170292536800352
0.011325492323333857
0.014771245296150683
0.0182491887411198
0.021034914708870044
0.02263609154762459
0.022853053975789947
0.021843915975178815
0.0201525282133235
0.018436683692885866
0.01732147515740642
0.016945963025262585
0.01685725482387024
0.016934897610092092
0.0166847180679868
0.015455585617614872
0.013113872711977033
0.009755571725198841
0.006206482043499132
0.004522383033219613
0.005437463807090684
0.008621486767029847
0.013877699905514606
0.018966599869277748
0.022996121027197176
0.026169742135246338
0.027867484219820226
0.028793440856363584
0.029433777210578035
0.029904942267815416
0.030361194775608127
0.030781334677087338
0.031320399364048346
0.03190874621497928
0.032618381155655275
0.03333003018183068
0.03387541559673752
0.034049650829199064
0.033624063292856464
0.03250077517224548
0.02395455256916386
0.01540832996608224
0.006862107363000622
-0.0016841152400809967
0.011649630996967081
0.019320418430388203
0.023865611661267272
0.0353366861350143
0.044653132309593384
0.05186780888075876
0.057182371751510995
0.061866315157487584
0.06617462868843546
0.0696850977597641
0.07157361914542357
0.07066037739986912
0.06656384922015286
0.05960150986235304
0.050545119279833274
0.040469239985620034
0.030323904202469252
0.020897233665929188
0.013319950895449576
0.009215920658007203
0.00873585782488761
0.01145812125106574
0.016189921286117636
0.020951480710465212
0.02486531950029422
0.0272447689670814
0.02766409724672153
0.02621713517054922
0.0236333778322207
0.02093995209758916
0.019168559660362176
0.018752526924448187
0.01914114924489347
0.019815280428076287
0.019955158122075507
0.018415183279984527
0.015024113768224712
0.010378951921400146
0.006381433916377115
0.0054144017265748325
0.00790577293749399
0.012372193259752364
0.017582197784286407
0.02141355098925884
0.023498901019185035
0.025199537143993634
0.026291101538007868
0.02724441876904333
0.028377429367737707
0.029486717255867805
0.030413772374249946
0.031110187694616126
0.031705926882190774
0.03223585996813236
0.03279299879335445
0.033393207623841036
0.033897728798073824
0.03404874902529798
0.033650122045074365
0.03260490935319754
0.024055922421923767
0.015506935490649992
0.0069579485593762175
-0.0015910383718975574
0.013011706370256506
0.019912921396908888
0.02467817759335164
0.031006743099991005
0.038190070271466627
0.04529796224395816
0.05154710222129738
0.056310575552687335
0.059060756158064276
0.05990249071481673
0.059234348596374144
0.05696902007936186
0.052793218136579306
0.04662148066854141
0.038889596870046256
0.03057031211411344
0.02279003956822097
0.01644921367342109
0.012196172053083263
0.010200222210510333
0.01011549996601613
0.011374303344866065
0.013236446172210592
0.015066529874803536
0.016531353747372267
0.017490679157763443
0.01789806623230014
0.01773765760208091
0.01713409724136785
0.01629421113132979
0.01555080129615512
0.014941792817605529
0.01425705784130908
0.013769057085427003
0.013201496287443933
0.012349314722736442
0.011148799300501454
0.009199257380808758
0.006805588767200506
0.0049545882063642705
0.0047384716609147216
0.00681524836972306
0.011643931206571916
0.017656178961349148
0.02331408133182575
0.027744039557335703
0.029841171977025356
0.03059204128809322
0.03061425476786926
0.030378348256818056
0.030324512227209485
0.030387924968888137
0.030755483940640926
0.031298807766683
0.032104291470374115
0.032900410454087405
0.033488438874924586
0.03370620163865703
0.03325404997526502
0.03202330876458425
0.023560314654966587
0.015097320545348923
0.0066343264357312595
-0.0018286676738864041
0.011743695025818802
0.019453872991955206
0.023884743040663785
0.035530954945541975
0.044911772133664644
0.05211904766458008
0.05739024431732154
0.062073603585469705
0.06644950747173746
0.0700695962952885
0.07206403752130985
0.07121084089326292
0.06712403350686949
0.06013857526590345
0.051039444973400336
0.04090495314037137
0.030678625619849936
0.02113930125896486
0.013419395925731733
0.009223859071884175
0.008714735454617708
0.01147628227839702
0.016315655334690156
0.02118197063786465
0.0251926326323338
0.027647029343717208
0.028096075358001932
0.026620968108655312
0.023961734900623265
0.0211767996794635
0.019338003100506974
0.018911223426841716
0.01934180381502509
0.02007287952661518
0.020250880639658284
0.018683888223108177
0.015198330375989163
0.010439128159361804
0.006422345931167761
0.005536313008951123
0.008184635063354897
0.012772226979535048
0.017963611513111488
0.021672225541019066
0.023571993093874394
0.02513271330081508
0.026162884505532003
0.027113941802750646
0.028287488364820867
0.02945232285612907
0.030420791255778068
0.031139732155768932
0.03173703954228958
0.03225845385413525
0.03279999165085539
0.03338917069146164
0.03388988205052297
0.034039257298585326
0.03364291836627466
0.032603735875052504
0.024056706322309475
0.015509676769566445
0.006962647216823416
-0.0015843823359196138
0.011239285178162972
0.018381684610811994
0.02412189710772343
0.03252237790483838
0.04062510705657451
0.04783354384870248
0.053761600089277155
0.058478528615074105
0.061794718682731974
0.06365196451182639
0.06395910525638161
0.06219555163411713
0.058026218040058725
0.05150399650725966
0.04319375747702775
0.034111764521703176
0.025321733634822156
0.017737949849469328
0.012271785638893088
0.00952987707966872
0.009387956614943354
0.011315478022263705
0.014328172951225992
0.01736231353121242
0.019779311142326565
0.021168346784919804
0.021385065374213297
0.020570263914764884
0.019176910651241712
0.01773954064936498
0.01677831302922652
0.016374284243167225
0.016128374243676583
0.016035965756025634
0.01568138109155236
0.01455427492802565
0.01253749144298518
0.009579680910652396
0.006311229808541411
0.004496871298567087
0.005010774682959731
0.007839828735834416
0.013000652595986092
0.01841766591012661
0.02298082776153033
0.02656222833051601
0.028408582847026416
0.029302304893745777
0.029774226125532776
0.030042535849614724
0.030351106590521815
0.03067538146892261
0.031179026882859964
0.03176834938879511
0.03251471625037602
0.03325539587715974
0.03381307789203282
0.03399722404660433
0.033563266155688824
0.032411535400873694
0.02387846906977161
0.01534540273866953
0.006812336407567447
-0.0017207299235346349
0.012022318861546475
0.01901236386500371
0.024418275782297064
0.031591808587654285
0.03915651240724866
0.04631123075152398
0.052436449747685424
0.057178115013980436
0.06015108600069696
0.06140294406965955
0.06113105600150941
0.05906985747169489
0.054896560865139096
0.04857668782153978
0.040597777589282215
0.031951727954744026
0.023743561955406056
0.01689402041612847
0.012163088528009292
0.00988114722902543
0.009791589545725215
0.011334822800996146
0.013670748418863739
0.01600098201760106
0.017852687226432462
0.018964011813340034
0.01925702512023309
0.01880101199275728
0.017872576682427047
0.016813639750460185
0.016016584551164424
0.015516710993648711
0.015018662343879921
0.014685108290729701
0.014194013288259215
0.013227177260004906
0.011697076639910957
0.009339868488407623
0.006577902196110172
0.004685325691772285
0.004709523239766327
0.0070628918953468366
0.012027226684967345
0.017845625190422796
0.023111314024293506
0.027234335091883013
0.02925402963011353
0.03007380853189455
0.030281315267481162
0.03024655290109933
0.03033643230297176
0.030508273100548704
0.030939382480407694
0.03151041080340628
0.032298553599320025
0.03307577794870407
0.033651677713620765
0.03385418829984952
0.033408650686284784
0.03221089623597924
0.02371253370002151
0.015214171164063782
0.0067158086281060535
-0.001782553907851675
0.011773791213534383
0.018796244209058045
0.024341744722535044
0.03179673159386662
0.03948681108104773
0.046655635287654776
0.05273756016580539
0.057472894465652395
0.060522531724768645
0.06191200010245689
0.061772174209937976
0.059778730050207105
0.0556060119334554
0.04923836154972034
0.041180847625097376
0.03243122061972121
0.02408579674682568
0.01706731822212867
0.01217205806244608
0.00978900650643606
0.009692017000958385
0.011326536163025529
0.013818612615330642
0.01631235327062246
0.01829325122641185
0.019462568376683878
0.019729228116245747
0.019184082953974963
0.018148442524543805
0.01700870390271134
0.01618253536755576
0.015710749045879602
0.015272056699200847
0.01499178734431162
0.014529327898852445
0.013525260443486547
0.011884786019298928
0.009391251718500148
0.00650920620209779
0.004620490993930795
0.004742554283441488
0.007197193506544691
0.012207796786744447
0.0179463465489842
0.02306455774364725
0.02707322570289245
0.029059410623051327
0.029898806966694485
0.030167391600432913
0.030200966148210554
0.030339940956433234
0.030547220749238532
0.030996953839327223
0.03157439324441305
0.03235463610037672
0.03312440533106655
0.03369619761752755
0.03389413038100728
0.03345106611877328
0.032264069069571105
0.023756093463732548
0.01524811785789399
0.006740142252055433
-0.0017678333537831242
0.011229114283452371
0.01837571703313098
0.024115716271019574
0.03254698244732267
0.04066289124736111
0.04787238495226786
0.05379519935183998
0.05851159729006451
0.061836706256179666
0.06370935942781994
0.06403118985178495
0.06227522896833418
0.058106076641128254
0.05157897775948674
0.04326077268420615
0.034168307248646335
0.025364178808092747
0.01776204586328479
0.012276793705939025
0.00952272990734547
0.009378849747537893
0.011315542695687613
0.014345121905145308
0.01739666464488003
0.01982793803062471
0.021224755500284104
0.021440793113472162
0.020617922986782975
0.01921296028645502
0.01776524303298354
0.01679869814652209
0.016396234970745518
0.016156485022057614
0.016070457349719448
0.015719692472529623
0.014588610773181939
0.012559378673646482
0.00958621943410613
0.006305878443890882
0.004495467127722507
0.005023745071433262
0.007865895817478426
0.013031199491780839
0.018436415265452047
0.0229799758966765
0.02654635556964798
0.028387459862622887
0.029282658687433773
0.0297611614669913
0.030037254879780092
0.030351473620065312
0.03067951154310123
0.031184696886947784
0.031774163998243926
0.032519242105029024
0.03325887123343621
0.0338160840905769
0.033999818842999414
0.03356617549253682
0.03241557032095147
0.023881863535461352
0.015348156749971233
0.006814449964481113
-0.0017192568210090062
0.011942631383338538
0.01894233478861172
0.024394571850595886
0.031653322268823746
0.039256091001024535
0.04641517515031996
0.05252739975111043
0.05726710332841831
0.06026315880867194
0.06155661839462387
0.061324692288693944
0.05928399991946243
0.05511087561495216
0.04877645254021082
0.04077356340140406
0.03209589998318598
0.02384591472779707
0.016945192847665123
0.012164775896874522
0.009852513234805285
0.009761003763734271
0.01133206523502291
0.013715343642445364
0.016095229969055807
0.017986030416969813
0.01911454202957451
0.01939898829092444
0.018915526378351654
0.017954585672659527
0.0168715772752711
0.016066271656149902
0.015575312533694095
0.015095359441456721
0.014777828054303737
0.014295236350663152
0.013317086822835486
0.011753620828803484
0.009355192960277654
0.006556709290357617
0.004664385398929364
0.00471729149209883
0.00710083692381978
0.012079158303364593
0.017874174324486895
0.023096082468260486
0.027185108957674717
0.02919505687938275
0.030020946869704843
0.030246977244142666
0.03023283383471336
0.030337512765859262
0.030520116686892747
0.03095699442805684
0.03153010766487534
0.03231596720692912
0.0330909938665342
0.03366565382024484
0.0338667534738755
0.03342195180197367
0.0322274668414628
0.023726084378270118
0.015224701915077438
0.006723319451884757
-0.0017780630113079232
0.02102621048880063
0.02762191040930746
0.02652570909008007
0.02880216854790295
0.034194911693313824
0.041151760668240236
0.047981021741709214
0.05299039728867797
0.05490958971206721
0.05382610164214032
0.05113928305780018
0.04770640140959394
0.043333219469486754
0.03793148597910692
0.031734066063660145
0.025498969297539927
0.02017636914438894
0.016251483896454633
0.013882527753466333
0.012730564083157857
0.01225148398160141
0.011982749078777262
0.011384455788997166
0.010480330428387665
0.010205810380255588
0.01114422133213335
0.013142970035134212
0.015273936250373913
0.016234978638300753
0.015657992237148873
0.014156548687388991
0.01225471189558273
0.010269467982845063
0.009069743900910693
0.008363413190662968
0.008209024051302303
0.008729361948065208
0.00890382074740764
0.00857301475288745
0.00805493693836973
0.008011746287871126
0.009361705182794873
0.013576772381662923
0.019595110503909427
0.025888723820406676
0.03088725929305271
0.03277266213331835
0.03293433380133524
0.03200579252445481
0.030893068730994493
0.030233829079717195
0.029716211388759423
0.02957312859981045
0.029753970361176926
0.030466794096043248
0.03125401679993118
0.031891451573544234
0.032225456455443426
0.031770001480479204
0.030370284415175745
0.022255970648211075
0.014141656881246405
0.006027343114281734
-0.002086970652682936
0.013354668771513025
0.021463626150130782
0.02477032586399917
0.03742885713343001
0.04732733772759514
0.054416638206910964
0.05925763375935252
0.06394475935641197
0.06898552164141229
0.07367377610034795
0.0767119053238003
0.07647462979129808
0.07252075216165292
0.06534905399462843
0.05586888312421759
0.04519525718159422
0.034216346099214805
0.023634775971248752
0.014521364670873066
0.00944728373406324
0.008632139105451889
0.011701167908870878
0.017549757660503727
0.023376277568512033
0.028316931115280993
0.03154851691936019
0.03236700003228072
0.03068425892885415
0.02730721828126912
0.023592670292295007
0.021033663471704853