# vtk DataFile Version 3.0
vtk output
ASCII
DATASET POLYDATA
POINTS 5568 float
0.0 0.0 0.0
0.13991364308097154 -0.03716421747482851 0.9894660142820945
0.28332922544138506 -0.08823970393711505 1.97780971230362
0.4188453402141179 -0.146979953971708 2.9668420503304294
0.5354352262524127 -0.20855473844567612 3.9581116122511824
0.6236820319236633 -0.26874955545548024 4.952389785246032
0.6750729278890064 -0.323618582863008 5.949559964123856
0.6823147721483738 -0.37055383147355386 6.948431646638477
0.6385278569662949 -0.4080002984937124 7.946770501019366
0.5383141131120492 -0.4349022727433001 8.941372677431719
0.378569192280767 -0.45008280674548823 9.92841427313882
0.15757740619701943 -0.45202380462253117 10.903688010615
-0.12478735236071875 -0.4393403074008723 11.862911275565793
-0.4669880686401819 -0.41160941704420334 12.802128858183284
-0.8653696345920141 -0.36984069227532274 13.718397105772901
-1.3137597657743432 -0.3166185702666939 14.610649141907981
-1.8040657022676656 -0.2554635577303655 15.480051323341343
-2.3274000243234316 -0.1899311806710124 16.329655169210334
-2.8751730328221843 -0.12302323969251344 17.163602444878432
-3.439860801745315 -0.05724841508241385 17.98628184542042
-4.015202498781095 0.005144424947044535 18.801811774463523
-4.596034100510156 0.062265057360466 19.613828944100685
-5.177965280671914 0.11245340087635775 20.42551683469083
-5.757054895576917 0.15428015806386747 21.23970707062611
-6.329557116359809 0.18672924896982962 22.058967873849376
-6.891785259493463 0.20935771473307427 22.885640401278277
-7.440265718276296 0.2224995531433221 23.72170049386527
-7.972105159965844 0.22740302305120683 24.568531506669014
-8.485668165012187 0.2260028705856203 25.426582250751697
-8.980842817037642 0.22036317474937395 26.295357398774673
-9.458519998800242 0.21278585803294453 27.173860155910198
-9.92008097657247 0.20576995700361161 28.0609408968412
-10.366946264760072 0.2020029796582674 28.95553422573131
-10.800652518151454 0.2046300229940736 29.856584715111634
-11.222870145712522 0.21746974157651064 30.762988276779076
-11.636017517192887 0.2436685844686259 31.673275522691036
-12.043426873303503 0.2843858953014111 32.585613024469886
-12.447017010505185 0.3401154770119125 33.49885407418015
-12.847920483538994 0.41037588581859313 34.41227614543951
-13.24687000973769 0.4925611223182653 35.32555861129952
-13.644445024564076 0.5823412899333584 36.238725424696064
-14.040721067350127 0.6756249817418047 37.1521056580909
-14.435445854902747 0.7692486820109921 38.06612258618329
-14.828245988312299 0.8587148534325961 38.98138422056146
-15.21901906166374 0.9389045788736161 39.89837168671198
-15.60683715511289 1.0046271566498641 40.817761521963554
-15.990321388574417 1.04864566877978 41.74025933403483
-16.36765060585387 1.0671167157260115 42.66615429687456
-16.73649844428619 1.0591399838570905 43.595609860004124
-17.09367668823843 1.0245190302157805 44.52900425232506
-17.435019623200414 0.9651183577192333 45.4670642508638
-17.755504235461405 0.8848130731438295 46.41090781553603
-18.05093961006561 0.7895517982002043 47.36150932454419
-18.318240143221573 0.6851195420886227 48.3194468636656
-18.55562870544201 0.5770826252116547 49.28483522858338
-18.762451603588076 0.47004388856419055 50.25734075435657
-18.9383616607556 0.36766308007614934 51.236408587471644
-19.083008436412737 0.2733163253594958 52.221383714145624
-19.196104282079393 0.1905183536296663 53.21151190057927
-19.278298648606683 0.12212070946769227 54.20577838818924
-19.330833258807083 0.07040775359599966 55.20305762938806
-19.355359616386462 0.037077340737059095 56.20220103319081
-19.35404823474033 0.023062581225228973 57.20210196168023
-19.3301876931456 0.02846247807836949 58.20180267472828
0.0 0.0 0.0
0.14668885836316203 -0.03948992320966965 0.988394114104797
0.2960374497409046 -0.09321657425864649 1.9757179947136607
0.43658237982860837 -0.15481143081320303 2.963874458171076
0.5574460545610698 -0.21913339391441583 3.954457446715182
0.6495988394309229 -0.2816427385111445 4.948238331054792
0.7048213579710105 -0.337989803776403 5.9451212136854865
0.7160086508168677 -0.3854816578835649 6.943930188551174
0.6763953602131276 -0.422666816324052 7.942453123289931
0.5805786837142861 -0.4486018567139646 8.937514195880297
0.425221054477452 -0.4621682694822156 9.925279329645663
0.20810242715349103 -0.46177780261342316 10.901424477256706
-0.0713600703683811 -0.44594682513376255 11.861450566814108
-0.41172176328416965 -0.41431377717948503 12.801212913512794
-0.8092037860457577 -0.36805397680887336 13.717656077299305
-1.2574786504173474 -0.3099692798807452 14.609662699447034
-1.748296457839279 -0.24383210782818804 15.478411083267355
-2.2725437747406847 -0.1734739698934091 16.327065596687287
-2.8213443461569216 -0.10214072001247798 17.15996985305451
-3.3869299066085405 -0.032502131473982565 17.981713998634504
-3.962895629778674 0.03309611006015556 18.796551624447606
-4.5440020951068405 0.0926822161889973 19.608194878537855
-5.1258238658278215 0.14451447474879697 20.419857889945725
-5.704421328572104 0.18710742857182716 21.2343582376378
-6.2760682697160455 0.21944566453763725 22.05422042921355
-6.837106713718535 0.24116206642616556 22.881725270432188
-7.384106233067845 0.2527285157806145 23.718778281346644
-7.914217608025141 0.25556840903332556 24.56670154741923
-8.425832953823422 0.2518360083755682 25.425908045956707
-8.918880665546547 0.2437745053547794 26.295872968314864
-9.394410342838075 0.23381432212027953 27.175516260089974
-9.85399648808398 0.22460067044952248 28.063601663483645
-10.299237536142916 0.21896864769807567 28.958994699777264
-10.731841387510336 0.2201889943906592 29.860577984081065
-11.153584606680697 0.2321406937647208 30.767214523145036
-11.566838577509333 0.258079935852909 31.677460814713562
-11.974752416200408 0.29924575670952724 32.58955273738228
-12.379096809987724 0.3560736567861663 33.5023923733456
-12.780787271795434 0.42789380540519084 34.41534726771062
-13.180438765471127 0.5117369745676008 35.32817200805654
-13.578605023032111 0.603002157464636 36.24093391443227
-13.975362740740826 0.697446513617028 37.15398570761244
-14.370436746133871 0.7918020050622772 38.06777647769979
-14.76345996319348 0.88118919135337 38.98295005783586
-15.154454658191908 0.9601334483984438 39.89995112259134
-15.542673046474723 1.023733315034551 40.81932130916635
-15.926750210560703 1.0653033428303902 41.74168602272424
-16.304741925861425 1.081351943959292 42.66735589128744
-16.674218663492834 1.070991880900021 43.59653811746413
-17.031960224913174 1.0340200291996526 44.52962656847742
-17.373762390148478 0.9724724287615272 45.46738089276538
-17.694490901750044 0.8904424005934088 46.410993258265414
-17.990051872630854 0.7941911529960743 47.361455992846814
-18.257507415281076 0.6894695658807541 48.319318677106786
-18.49514001141764 0.5817079822709644 49.2846777762773
-18.702322172086568 0.4753774630863963 50.25718452329271
-18.878704454540973 0.3739881594291343 51.23627057647704
-19.023861337569336 0.2807969278064003 52.22128066457672
-19.137452433918696 0.19930021308292012 53.211460117160655
-19.220152845348142 0.13233822074381296 54.20578236549435
-19.273240493619152 0.0821822793720069 55.20311184121748
-19.298399994099295 0.050513803458124396 56.20229356000985
-19.297832616255832 0.038245040640508265 57.20221813493603
-19.27489688187112 0.04542098024608948 58.201929322219144
0.0 0.0 0.0
0.19007293324767371 -0.054395853052381316 0.9802618890976683
0.3775276109135786 -0.12514986981937437 1.9599835908745087
0.5507187528524217 -0.20520176716809918 2.941613114719828
0.699827357481867 -0.2875031631234203 3.92700293821572
0.8182121534168234 -0.36542970259913554 4.916908233957074
0.8994078702999222 -0.4319168836605236 5.911386343477012
0.9374333368476664 -0.4835513465879179 6.909328198562782
0.9262034220876183 -0.51942863664719 7.908621303248531
0.8602282602599856 -0.5392766347541665 8.906245147687388
0.7345859364508441 -0.542337602202641 9.898316030712445
0.5436597519068316 -0.5265205299593121 10.879792985246333
0.2837513491860476 -0.48962029584487676 11.844720959199535
-0.04432919703216265 -0.4316641069984987 12.787591170505186
-0.4359278445314676 -0.3549631931916775 13.704524902624314
-0.8836202589994084 -0.26382478477290106 14.594055842242918
-1.378051310949154 -0.1637772526648834 15.45749572213437
-1.9085514199914695 -0.060576625121722016 16.29887510432815
-2.464332612957124 0.04085366759373299 17.123992769431336
-3.0360394432522897 0.13675898538856612 17.938826169711742
-3.616336243155142 0.2241374756982769 18.74853020419206
-4.199473430126255 0.3004420323925243 19.557312397244747
-4.780749949800772 0.36333812107682784 20.36858404700412
-5.356164525832533 0.4109041166364029 21.185061567672395
-5.922044889538159 0.44208683904013557 22.00895904418017
-6.474890610210926 0.4570533371743961 22.84210825834736
-7.0115921696449375 0.4572758743996491 23.685880376029782
-7.529680571470803 0.44542864953324757 24.541125400076393
-8.027845255206715 0.4252196135915105 25.407972297022216
-8.506373751455616 0.40017471512912195 26.285687074919213
-8.967439900267156 0.3736267393742021 27.172655626449316
-9.413913442313286 0.34923293359735075 28.06711988984529
-9.848513866421925 0.3308426349649135 28.96755548903093
-10.273954366208619 0.32256777023387606 29.872504055389776
-10.692667622813905 0.328755737408132 30.780601471862944
-11.106772374880203 0.3534999677202608 31.69049431026886
-11.51831259017252 0.39865672932963114 32.60076653223222
-11.92800613942269 0.46418169379480445 33.51063337674005
-12.335256093864515 0.5478709871551368 34.42010771765572
-12.73990198415213 0.6441578326376283 35.32949792370611
-13.142371328042945 0.7467336337854886 36.239166342552764
-13.542758515808663 0.8505687887408504 37.1496103883175
-13.94040509303088 0.9512874771076492 38.06160432768175
-14.334809029809788 1.0398134459191664 38.97626748289206
-14.72712453499545 1.10737932667953 39.89361332615293
-15.117901210166622 1.151973533430278 40.81301799596184
[...]
CELL_DATA 87
SCALARS quad_param_group int 1
LOOKUP_TABLE default
3
3
3
3
0
1
2
3
1
0
0
0
1
0
0
0
1
1
1
3
2
0
1
2
2
0
0
2
2
1
2
3
3
2
0
0
1
1
1
2
0
3
3
2
3
0
0
3
3
3
2
1
3
2
2
2
2
2
2
2
1
1
0
1
3
3
3
2
3
2
3
3
0
0
3
1
1
3
1
1
0
0
0
1
2
1
1
SCALARS single_component_feature float 1
LOOKUP_TABLE default
0.0009042197849837563
-0.0054606503301657325
-0.04772066602113864
-0.05983064455692903
0.05677796344772558
0.05724539259106798
0.02161662523251337
-0.009588279552698337
0.021559402796775085
-0.029044472009466478
-0.06449602985333688
0.007671742876268733
-0.006302421465317287
-0.06256081902480615
-0.03558225988644875
0.0012248007655317472
-0.015930713707504485
-0.0014505264595531947
0.021944100447947347
-0.03560785045648075
-0.01785847028425755
-0.017797089013541312
0.025052887017065012
-0.0521185426291438
-0.08915701486374882
0.025951900904662456
0.04415662734107734
0.0480178953441132
-0.01089686995322943
0.054419554874546125
-0.0434570313256631
0.028348239618495197
0.0827763097170359
0.04300018984129288
0.0021666541623195645
0.05391677940506828
0.027950083643283996
0.0033101519097860077
-0.006462700985369007
0.017681328205529784
-0.007604305281635609
0.028329272385186226
-0.01764350149737433
0.060942901463589445
-0.018549198180015124
0.02345111230839675
0.02650844057823671
0.013846279861838368
0.02580511023929004
-0.056566087072984716
-0.012480124765527435
0.0060266664475538655
-0.01727562829481929
0.03592456608885913
-0.01927809050642648
0.05025101597928369
-0.0044400496854148895
-0.022577417618731607
0.05427156433000277
-0.0006462162305429509
0.012460743761024698
-0.02800573873409351
-0.006112550886915091
-0.0028507653595178373
0.00878040965833593
-0.015516772897442799
-0.02057844743671891
-0.03986422708609163
0.07122639710570586
-0.002990605132842744
0.030901931057279827
0.006730478658207445
-0.07398587102167872
-0.05078720873114209
-0.006636710324927228
-0.027366641742312688
-0.02557336236307789
0.0026945665053764167
0.012336566409287958
-0.06791890560009718
-0.01741596032999808
0.10345606923868747
0.02882741152240611
0.015107858482823292
-0.060777644254553856
0.005606693751789148
-0.03441382234656942
POINT_DATA 5568
SCALARS single_curvature float 1
LOOKUP_TABLE default
0.011170451174632397
0.018302071074143732
0.02403838145524396
0.03249382690587111
0.040638373747732624
0.0478662835600033
0.053793534228818315
0.05849050419651634
0.06177302247646382
0.06359730758051091
0.06388233779722817
0.06211417202992238
0.05795756098508558
0.05145741501024839
0.04317446353760326
0.03412083218799784
0.025350794217201458
0.017762967178216623
0.01225756560145229
0.00946391653186581
0.009279704362198875
0.011190941069026959
0.014223674283736483
0.017294500343911567
0.01974862069072514
0.021166851465815
0.021404915384482658
0.02060516253749476
0.019223056984368127
0.01779538194930419
0.01683674502112802
0.016422476222228408
0.016153560627223982
0.016034845215955416
0.01566026423426529
0.01452982605438545
0.012523771294240359
0.009580714678923359
0.006314208523562453
0.004480022012247574
0.004962929817236948
0.0077670449422792935
0.012925813605052894
0.01836130209109584
0.022946385144141757
0.02654178396629269
0.028396272919890598
0.029293946384346216
0.029779658170718152
0.030062916680477086
0.030377737329977138
0.03070414486637954
0.031202550864055302
0.03178364679370183
0.03252134143191397
0.03325603113291042
0.03381031431585341
0.03399467668121639
0.0335647184009826
0.03241988221666892
0.023887030434506632
0.015354178652344341
0.0068213268701820505
-0.0017115249119802403
0.011593107797696683
0.018826956152802513
0.0245843176094993
0.032855002764746656
0.04079493910893814
0.04789513012797922
0.053794056026037415
0.05862765719978244
0.0622055474824789
0.0643627527796055
0.06489944246199711
0.06321292017358295
0.05896679834020922
0.05227793038273674
0.04374987061563148
0.034428713134100376
0.025429612889779317
0.017759952310923498
0.012411882075551729
0.009902718220582935
0.010000861679014922
0.012079137236827762
0.015076858668412341
0.018003076667695152
0.020287465363874806
0.021548237344137588
0.021628901208899348
0.0206689873687123
0.01913279051151897
0.01757352836677349
0.016568683851012192
0.016243674715734905
0.016180770997271457
0.016288097129001335
0.016073961246278173
0.014934279764333048
0.012766907234220746
0.009619489028055709
0.006273592530431745
0.004612335516063537
0.005418421425918203
0.00848894462816721
0.013681419973485102
0.018903031524601144
0.023194214314317944
0.026584706755945733
0.028344579892013545
0.02922395174589318
0.029658259840207497
0.029889705821745303
0.030199100435660313
0.030534936460329322
0.03107718791557477
0.0317138793534045
0.03250187179863264
0.03327046833681604
0.03384505692947703
0.03402510066521501
0.033569047137274904
0.03238316997918271
0.02384574794956935
0.015308325919955991
0.006770903890342631
-0.0017665181392707285
0.014544735693814667
0.022381185687304735
0.028026172500340108
0.035179168387735577
0.04197867469294646
0.048387592286178685
0.05413064680777738
0.05985337629595176
0.06539174164156089
0.06976781978891536
0.07197596702672875
0.07080832314266389
0.06590356887783685
0.05787421054450033
0.047660138180211524
0.03660521971063272
0.026340712531913543
0.01861488569950974
0.014529864997437216
0.013898106388535862
0.015700149316150137
0.01852406459797975
0.02115859472395459
0.023096482239643494
0.024137953645255585
0.02418500940737875
0.023063869740826682
0.020957959319100678
0.018473830510019596
0.016328567727538323
0.015438616265017094
0.016102890130620957
0.017600611892727127
0.01912052819912102
0.019638645943851483
0.01805438293478435
0.014576641236546974
0.010102157935725956
0.006627070994401754
0.006634982550296976
0.010277743395479206
0.015416754233776765
0.020569505347543985
0.023916648478588917
0.02555201565888363
0.027091955486335195
0.028044407883042383
0.02879137008426426
0.029041250198742298
0.0290792421834468
0.0294500042105438
0.029840130566756523
0.030489322690607824
0.031300705736516936
0.03228359029827583
0.033193349163929055
0.03386842880242392
0.034013163980573566
0.03338453667632399
0.031934732658507534
0.02342102449350199
0.014907316328496449
0.006393608163490907
-0.0021201000015146354
0.01539537999320063
0.023377082080254078
0.028930349780937916
0.03580900139710207
0.042352561131469874
0.04861762705605173
0.05433247799263845
0.06030636684741112
0.0664049520261534
0.07141851086322051
0.07410619220226249
0.07308136772674297
0.06796856547929322
0.05952632781031628
0.04880941956802322
0.03727433309183302
0.026734446154284244
0.019107217344714655
0.015429194725551827
0.0153341371273699
0.017568746555605884
0.020532395712186072
0.023044268537822887
0.02468150597305805
0.025323162786400382
0.024966284150653717
0.023450986597090488
0.020993155283128912
0.01827167489119028
0.01606531737430267
0.015347799999199023
0.01641362959535452
0.018404340770594146
0.020284319190904364
0.020900914026990746
0.019074630501854248
0.015153673362306167
0.01032189421590562
0.006882112630344578
0.0075517129434218575
0.012230143150467079
0.018051062709041613
0.02316918360858514
0.02582280323546341
0.026474115027925453
0.027328971304234766
0.027993170597909473
0.028697654688856357
0.028944689848714067
0.028975674464853596
0.02939550485857464
0.029799469938196578
0.030420706904526706
0.03121947763771504
0.03221299820785968
0.033135532109743134
0.03382772216217579
0.033960085821965365
0.03328244439690461
0.031760021256464877
0.023265734999298484
0.014771448742132091
0.006277162484965699
-0.0022171237722006937
0.008501847618056464
0.01465443534697784
0.019665702640162947
0.02937241283676485
0.03962871578556228
0.04818477290673869
0.054351934505467436
0.05780267402915759
0.0585062424913426
0.05743218524491077
0.05550541944004855
0.052967821025187566
0.04947730895218323
0.04449464333410924
0.03827407873482631
0.03161018466161973
0.025153408486979695
0.0191509824410853
0.013532941070906043
0.00830451290074082
0.005508985182535013
0.005330166201347995
0.00757710307944769
0.011845716238272526
0.015584517964218787
0.01807592875781406
0.019417545150237463
0.019873582298224706
0.01992712867660132
0.02003611346134015
0.020106071640857447
0.019592241615233274
0.017935964599121182
0.015807117043545548
0.013548734742946732
0.011834024548645008
0.010763119271291796
0.009539828688816107
0.007948358197877998
0.005811170458072828
0.004374769281329851
0.005312479316169963
0.009361152375597247
0.01551367378152213
0.021698693933749916
0.026341086207041446
0.028725281129422707
0.0297710216231721
0.03096147858394308
0.03194377248449473
0.03246985640051953
0.03269946724250134
0.032513867800135154
0.03229158233545822
0.03236197255480247
0.03266422741807264
0.03298851867191154
0.03320094286979324
0.03299915744708383
0.032225307264914925
0.023865252902759204
0.015505198540603483
0.007145144178447763
-0.0012149101837079582
0.00849465423191121
0.014638759848935605
0.019640110676556292
0.029347966486182327
0.03962365691260812
0.048192009712449135
0.05436080932307253
0.05780071513946533
0.058482894095040885
0.05738482033120335
0.05543951664752071
0.05289502579888192
0.049409134525989384
0.04443815556645116
0.038234216780142424
0.03159049311916783
0.025154700694097684
0.019170377599636364
0.013563870251384204
0.008323192207663109
0.005506747533510928
0.005307985205252888
0.0075373915292418076
0.011808091225981622
0.015554881878449443
0.018052431474600717
0.01940105470621355
0.019866461952365477
0.019932585791933275
0.020057013410683864
0.020139861836689556
0.019630149428051233
0.017965676726818158
0.015820231691193464
0.0135428920713922
0.011818438924287161
0.010751457782874008
0.009541598861278616
0.007968326505152945
0.0058452994060671885
0.004399528603646387
0.005324566336110589
0.009360753239573211
0.015502792910306146
0.02169394514271586
0.02634012961101495
0.02872654964866367
0.02977343217870484
0.03097155189736789
0.0319614147400823
0.03249047355809697
0.03271920209088862
0.03252577476472466
0.03229452566725624
0.03235771158027468
0.03265537657657183
0.03297738351356455
0.03318997582587035
0.03299008261547586
0.03221939063871969
0.023861872906969544
0.015504355175219399
0.007146837443469254
-0.001210680288280891
0.00989555812498822
0.01667799022636145
0.022259414182871372
0.03131404112782155
0.040180589201896634
0.04786150427777706
0.05388311659099772
0.0581286501040155
0.060451319221546965
0.06119557068127533
0.06066141964890349
0.05861976369294231
0.05473569349426094
0.04882669861192418
0.04132640162795271
0.033151660464115607
0.025183982623660096
0.018018097301708082
0.012134339047757329
0.008410760387354908
0.007271910331686795
0.008518983907248852
0.011558341235148782
0.015099323157239768
0.018078017279995987
0.019962494965029186
0.020669025196796444
0.020366388199742
0.019500257796311947
0.01856661968663691
0.017864280955806777
0.01727159544639986
0.016396636313944706
0.015532709207654483
0.014554173805736809
0.0133452393123953
0.011790214207697108
0.009505421812480982
0.006700502612863917
0.004418834846741539
0.004016789332446698
0.006036849838311118
0.010912494060167005
0.01694038732198271
0.02230679489787698
0.026439909410742084
0.02855323724636984
0.02950831387623249
0.03020353852696487
0.03069590287470811
0.031054954601393688
0.031348127546456564
0.031654183910924685
0.0320021932296283
0.032539001820951756
0.03314113833039913
0.03362064066522516
0.03381738046792255
0.033472308634139185
0.032463026181907474
0.02396476888894616
0.015466511595984847
0.0069682543030235335
-0.0015300029899377801
0.011872405115167168
0.019171100512017425
0.024935932502482726
0.03308826563907955
0.040900016447526014
0.04792048270162053
0.05380144702442907
0.05872318886110247
0.06249267570103836
0.06486600199086688
0.0655658883528236
0.06393175937065208
0.05962618236305792
0.05281311964690484
0.044124913313971614
0.03463102351293591
0.025488310176178523
0.017777407681397146
0.012537877981664943
0.010212885538895256
0.010490842297258772
0.012668224746142228
0.015638664220293984
0.01847084748894901
0.0206429493461727
0.021798106974499232
0.021773364024519383
0.020707760897925594
0.019072908477697617
0.017433789664047985
0.01640753324644618
0.01614902197571506
0.01622433798614677
0.016477050563191105
0.01636027964022169
0.015206279023356264
0.012928876442021113
0.009648872353192136
0.006264788036628149
0.00472549461118156
0.005755211786758602
0.009005059173906631
0.014208648259763739
0.019282877434800793
0.023368935106332093
0.02661627377472003
0.028310995617692843
0.029178308785498448
0.029582582076105403
0.029783587588292946
0.030091514279373135
0.030433266285677545
0.031000073839970565
0.03166874540196762
0.032486451871531895
0.033275296826996044
0.03386235817911605
0.03403946685365015
0.033566495720341816
0.032354171344811965
0.023815137836131924
0.015276104327451884
0.006737070818771843
-0.0018019626899081972
0.009898791967215988
0.01668221893583893
0.022264260027658127
0.03131729344680456
0.040181733953531
0.047861324383832615
0.053882677143719526
0.05812947354709936
0.06045479022302439
0.061202017572272255
0.06067013051352948
0.058629247750813164
0.05474446502527294
0.04883388456911763
0.041331455978540196
0.033154271923238526
0.02518427074978567
0.01801690434440074
0.012133782846965108
0.008412780576011388
0.007276627644884707
0.00852577370323258
0.011565463117965618
0.015105143381244482
0.018082447607051574
0.01996573754033088
0.020671067096642733
0.020367107969689793
0.019499524102206286
0.018564390552582487
0.01786112962199584
0.017268701833331315
0.016395274264051653
0.015533416447589168
0.014556713278004861
0.013348224158795378
0.01179211540240086
0.009505528198848005
0.0066989627016563425
0.004418283122396682
0.004018366897167866
0.0060404268480604255
0.010917167380337362
0.01694365280289117
0.02230823855509661
0.02644012930132571
0.02855284502974146
0.029507767196123056
0.030202325467389796
0.030694027946178582
0.031052901526371295
0.031346171414805404
0.0316528622960177
0.032001624018135146
0.03253906507932774
0.03314161396998953
0.03362134068696234
0.033818049698247914
0.03347274359651733
0.03246308280514942
0.023964684757250623
0.01546628670935183
0.006967888661453037
-0.0015305093864457567
0.013224792486501609
0.02081240019557344
0.026553960073813766
0.03417236758288235
0.041428572569931384
0.04810789954380287
0.05391082189664142
0.059243789578501536
0.06391636870592508
0.06731039335193927
0.06877961684273397
0.0673871227409456
0.06278680916783794
0.05536887214283775
0.04591279042851112
0.035613906293909904
0.02585092008286459
0.018059228029371516
0.01338086026765717
0.011921174146253752
0.013008451453063268
0.015566834056316047
0.018378851421270787
0.020762311686502888
0.0223799234456119
0.022999963562451105
0.022443347221357282
0.020860821683281836
0.018776695249629813
0.016823919043545965
0.015790554168194488
0.01593504369254648
0.016706504512609518
0.017626461757857256
0.017894643585379885
0.016586685620409464
0.013736360208951871
0.009836514343494787
0.006362330816758918
0.00551312537109377
0.007751764577612998
0.011914941976590846
0.017110480526981414
0.021389156218524222
0.02435012168132714
0.026812819559059634
0.02816035827216266
0.028968502558370236
0.02926628246921187
0.02935742167990361
0.02968014882697722
0.030047826193677858
0.03068918733165043
0.031465198904658404
0.032391968283399936
0.03325758017585404
0.03389583282094876
0.03405763673318957
0.03350505500490582
0.03216995826415387
0.023635840458273955
0.01510172265239404
0.006567604846514124
-0.001966512959365792
0.01572010060014537
0.02375425113364896
0.029267321420417394
0.036046149022655266
0.04249949293128298
0.048715934204748165
0.054422517416624155
0.060492992470105936
0.06680707828605846
0.07206630226480622
0.0749388341298106
0.07396851558706857
0.06877342391053205
0.06016864229897336
0.04925558391639045
0.03753778410829647
0.026901917283361623
0.01932219434743615
0.015805286200930642
0.015917179454152358
0.018312646083706387
0.02132568813081475
0.023789002005690296
0.025307376541606547
0.02578900033504673
0.025269466813927974
0.023596435075630483
0.021000729342458283
0.018193486846243438
0.01597784880008869
0.015343227126532724
0.0165763942402043
0.01876022979656438
0.02077182043180246
0.02141317095365543
0.019481183311188543
0.015382441335402727
0.010416077578215749
0.006997503032144769
0.007944152997978042
0.013047102944131781
0.019141321758569994
0.02424490260700447
0.026612937363301323
0.026859957944876254
0.02743308529197117
0.027979543820937553
0.02866699553644204
0.028918812688492515
0.028952878517926453
0.02939543057144531
0.029804682629402543
0.030408283769623623
0.031194713807324
0.032186868238922035
0.033110931728926665
0.0338082443393248
0.03393555936438973
0.033239111174333355
0.03168909591160421
0.02320334117554588
0.014717586439487548
0.006231831703429218
-0.0022539230326291126
0.010734346228560456
0.017754482763810347
0.023455083814478972
0.032108493402733355
0.04047967770946479
0.04784951938538986
0.05380745468987825
0.058358124029860306
0.061326744253296754
0.062797544504337
0.06281496944060219
0.06095880359967206
0.05689443210502204
0.050591273359341264
0.04256652895255145
0.033798772431349995
0.025281824067784547
0.017805866768008435
0.012150086040223345
0.009053272462823527
0.008562618489714607
0.010276823501484683
0.013333950923328014
0.016558287164770664
0.019188456890235652
0.020766882610935084
0.021165420257728905
0.020532170288182685
0.019316325228335412
0.018039330690847243
0.017146963044931574
0.016655548390124213
0.01617749008320623
0.015816508722775003
0.015258022930112837
0.014120224923975577
0.012274241784636668
0.009547796666683256
0.006398305118516279
0.004399040300765605
0.0045660111661501345
0.007100239824787072
0.012195519820629719
0.017841686720127228
0.02271039882075153
0.026502865561512524
0.028450172110158295
0.029366944855951635
0.029914051781257157
0.03025885619540886
0.030583657285615597
0.030899629332507707
0.031343494990740545
0.0318571614989809
0.032535447935290826
0.03323054189105162
0.03376183444033306
0.03395051824337303
0.033548308000080254
0.03244743934059205
0.02392242269960389
0.015397406058615733
0.0068723894176275745
-0.0016526272233605838
0.011649765347020818
0.018896933079476003
0.024656203560426988
0.032902642909536574
0.040816148164837605
0.04789987956359409
0.05379511302474054
0.05864671796129294
0.062263679404619666
0.06446494587772572
0.06503491731086429
0.06335911442895714
0.05910095683162786
0.05238687707377851
0.043826234449153116
0.034469800492960515
0.025441090016116302
0.017762275437616458
0.012435962370224598
0.009964377346181798
0.010099407779177613
0.01219847213350151
0.015190885659582808
0.018097946805333266
0.020359579762920185
0.02159903669990672
0.02165841667319997
0.02067706484819876
0.01912066453102897
0.01754476048195716
0.016534997850356063
0.016223001600076864
0.01618799648941114
0.016325056193022706
0.016131208476756313
0.0149891366488683
0.01279966644828042
0.009625205140908933
0.006270757855122488
0.004633728435072324
0.005484511136959759
0.008591186335462315
0.013786524467893234
0.018978648625373927
0.023228936873595927
0.026590893885176034
0.028337722498758783
0.02921464771332968
0.029642619530966845
0.029867655501873612
0.03017661981003334
0.030513674879237063
0.031061182192810115
0.03170465614808588
0.03249889418887929
0.033271731589702064
0.03384890857094867
0.034028362396340654
0.03356885831794323
0.03237757672668377
0.02383974234143924
0.01530190795619471
0.006764073570950182
-0.0017737608142943465
0.015585652668802609
0.02359828742664589
0.029128329072665504
0.035948167974676634
0.042438369542569396
0.04867451738164903
0.05438434491487291
0.06041476312274308
0.0666394828629557
0.07179680143448795
0.07459264889215624
0.07359975289083251
0.06843893665061433
0.05990181439272057
0.049070284939100324
0.037428117798688994
0.026831397472527285
0.019231376388797346
0.01564735066384922
0.015673381162212858
0.018002488568842363
0.02099528715002983
0.023478828675652222
0.025046728624471503
0.025595153656213735
0.02514357184891055
0.023536365258748113
0.02099799380821959
0.018225908807736668
0.016013137328794183
0.015343030091654308
0.016505959926369697