# vtk DataFile Version 3.0
vtk output
ASCII
DATASET POLYDATA
POINTS 5568 float
0.0 0.0 0.0
0.1220956822518593 -0.02095716895790231 0.9922970530263218
0.2523942037788014 -0.054607302513136724 1.9832006627682626
0.3798181675861285 -0.09604431561985781 2.9741830578653814
0.49321075749121035 -0.14057497130887456 3.9667348908990645
0.5826576885625327 -0.18408450311759206 4.961775677582559
0.6390200431566417 -0.22285819836516574 5.959432875993645
0.6538856192205356 -0.25442382555762155 6.958824003544934
0.6191410616364064 -0.2774307169601198 7.957955375620837
0.528269215419565 -0.29102625774018587 8.953725162688128
0.3773475732800857 -0.2941549591197281 9.942265940380986
0.16408198042604338 -0.28542122426120264 10.919221163909699
-0.11207937643841315 -0.26352497231594574 11.880082995353497
-0.4496799123993346 -0.22798814887645902 12.820701415489276
-0.8446866672999167 -0.1797989106651842 13.738114877840646
-1.290519399637124 -0.1215975886586909 14.63133701196711
-1.7788796500607331 -0.056912743896373436 15.501578436322596
-2.3008378112979484 0.010747178091079584 16.3518618084254
-2.8478858454679354 0.0784299186253842 17.1862223389783
-3.4126406094225956 0.1436334077394487 18.00890123234914
-3.9889497110340475 0.2041237645708516 18.823891254453834
-4.57161385016475 0.2580913573993101 19.63481048587912
-5.156067946086503 0.3039993253892114 20.444937555069707
-5.7381146612485185 0.34066189301911287 21.257265984649695
-6.313682271311242 0.3674615686382324 22.074580920053055
-6.878756214377432 0.3844206259130236 22.899446866279458
-7.429612023028715 0.3923024641690678 23.73401007820582
-7.963202878466548 0.39272348746049535 24.579752723300953
-8.477873711348852 0.38788241751982144 25.43712691105217
-8.97364859822241 0.3799232867852512 26.305541508916267
-9.451620142119456 0.3709995988145589 27.183871498736536
-9.913251236842974 0.3634426433057978 28.07091130889604
-10.360002353182438 0.3598641533395647 28.9655624333345
-10.793431930004331 0.36334112804303975 29.866743165808796
-11.21511926387016 0.3775870950592636 30.77337255253796
-11.627337383538348 0.4055671156131313 31.684027997954626
-12.03350746428786 0.4483432667887981 32.59682373983478
-12.435675952065804 0.5063959418348519 33.510547108452656
-12.835103211163148 0.5790893612059977 34.42442539984058
-13.232635824340239 0.6633333470362375 35.338138030984545
-13.628967066809027 0.754513879064217 36.25170666925003
-14.024204072893609 0.8485958022929124 37.16545515802737
-14.418180170352207 0.9423782426969171 38.07977878153448
-14.81065241779805 1.0313337158275961 38.995230833137896
-15.201418309003415 1.110601839821162 39.9123014862443
-15.589275360771133 1.175272818032149 40.831749457568016
-15.972522249285388 1.2184693307938317 41.7543847504814
-16.349176180356416 1.2363929094194777 42.68056538164251
-16.716955621832422 1.2280060721168617 43.61044061165332
-17.072817104686045 1.1930240601906068 44.54432436451703
-17.412766306328145 1.1332982928759268 45.48286971399226
-17.73175919220349 1.0526785148779365 46.4271916877684
-18.02572652641638 0.9574040158007061 47.37824687872282
-18.291834248681383 0.8532331696526462 48.336544909068145
-18.528412889183606 0.7456036891103826 49.302177573064306
-18.73480655687378 0.6390613400349768 50.274828785879514
-18.91064914021865 0.5372009596380479 51.25396302018449
-19.05549224444275 0.4433716511211151 52.23895872373957
-19.168929321602942 0.36117934797231344 53.22909833754585
-19.251538499794112 0.29348236024842933 54.22337839946588
-19.304530005497483 0.24258399562459906 55.22067537469538
-19.329596862693354 0.2102524193382335 56.219838185174815
-19.328971709826735 0.19748370214775593 57.21975646635843
-19.305984021323663 0.2044049560344776 58.2194682560368
0.0 0.0 0.0
0.15999303269075715 -0.054380911025937284 0.9856190673918618
0.3184122677983663 -0.12397193091755454 1.9705355287724018
0.46350870245058895 -0.2011077653772147 2.9569416762053065
0.5844550438313896 -0.28074442004180594 3.9464011173854043
0.6724684188654544 -0.3584843424540763 4.9394822572115755
0.7197769438496886 -0.43005069268070356 5.935795541765714
0.7202977659197347 -0.49269994479973717 6.933831012053868
0.6684452609916723 -0.5447108840740018 7.931130455515306
0.5599646421730478 -0.5848467790466121 8.924418462729466
0.39252093406917077 -0.6118084415548988 9.909931361362059
0.1648357596798561 -0.62392221703924 10.883590807886778
-0.12293376151521984 -0.6196883136429894 11.841281142354651
-0.4692110862406834 -0.5987616809437131 12.779179905774694
-0.8706922772168572 -0.5622220049160811 13.694317985721185
-1.3215761623130975 -0.5126568720913407 14.585523360350729
-1.8139371142859888 -0.45365077150043426 15.453912082678123
-2.3388692830526856 -0.3888888208683174 16.302588763130824
-2.8876219613979224 -0.3214977732736987 17.135852793743588
-3.4524629593236384 -0.25404577496886077 17.95829116528699
-4.026982683628773 -0.18883167727084726 18.774179765431512
-4.606028805650241 -0.12785512981744673 19.587191111743827
-5.1853727785778725 -0.07292405612176128 20.400421176470328
-5.761329501813033 -0.025722191762499985 21.21653748984804
-6.33048755271231 0.012348437747719654 22.037883787255677
-6.889498411329546 0.04041619112835082 22.8665689272022
-7.435151311778112 0.05843316059759368 23.704386509402052
-7.964718461517382 0.06732503345928609 24.552607924195406
-8.47659241125478 0.06880693235032084 25.411667214090997
-8.97053837222209 0.06488672337009782 26.28115098024516
-9.447292886083538 0.05803160545818872 27.160160730402204
-9.908209466865245 0.05095122239566244 28.047575950992986
-10.35471640471367 0.04645477802599135 28.94234482418944
-10.78837516693751 0.047797341591023695 29.843421000475086
-11.21097933165436 0.0589356003730247 30.749666915861898
-11.625084201625452 0.08323905645136095 31.6595715804773
-12.033878565006864 0.12197837155377159 32.57137552537608
-12.439109406893143 0.1756356157649365 33.48401393401764
-12.84172082597966 0.2438307169660872 34.39684112105432
-13.242296683106792 0.32435696649170265 35.30955931733629
-13.641288793040932 0.41311480332408274 36.2222078491442
-14.03873858942162 0.5059065776398344 37.13512807894321
-14.43429566266125 0.5995653632095674 38.048781532773326
-14.827455903267632 0.6894956116916717 38.96384304743465
-15.218259127856959 0.7702330446145786 39.880769602059175
-15.606113676254148 0.8364007326952785 40.80011213144725
-15.989975070795838 0.8805550702973555 41.72244657418016
-16.368149643306776 0.8989087799748727 42.64799891416275
-16.738236175674714 0.890707358216388 43.57695999797682
-17.09689554496543 0.8558448816859294 44.509777270839066
-17.439783215747244 0.7962467831708555 45.44726119703685
-17.761869299543388 0.7158712024247502 46.390553474459175
-18.058867009045255 0.6204541509134669 47.34065238869471
-18.32747861694959 0.5157923546145198 48.298198059926385
-18.56583952252986 0.4075403895575151 49.26332271029661
-18.77330896359829 0.30031739491911535 50.23567021013581
-18.94955903980539 0.19780288616783603 51.21466289965523
-19.09431772103994 0.10336327315164442 52.19961268705588
-19.20740304188918 0.0204126211194455 53.18972929611557
-19.28954373655146 -0.04820959849521511 54.18398474480849
-19.342022866201532 -0.10024348382665849 55.18125021384293
-19.36645757670629 -0.1340677818542491 56.18037926546013
-19.364961526169015 -0.14881887509921127 57.180269342959086
-19.3407988073272 -0.14444074752853137 58.17996779500207
0.0 0.0 0.0
0.21372211293298105 -0.1021621784164066 0.9715378262037336
0.41172939137817177 -0.22292343459633443 1.9442710047725407
0.5813053186424068 -0.3505810276756677 2.921485179772917
0.7122027742382192 -0.47967278130059 3.904440506969725
0.7973266717875483 -0.6054569713972447 4.8928393432639306
0.8309700074115021 -0.7229784619303191 5.885339633052794
0.8104812985421269 -0.8292805795322183 6.879462398410382
0.7339135772806016 -0.9221998174671703 7.872187636974611
0.6002635152211191 -0.9999219222305537 8.860163818541073
0.4094685134842858 -1.0607036809403598 9.839910135258
0.1616448094456323 -1.102398808460461 10.807817635000431
-0.1421672247767416 -1.1232109059889333 11.760322282998606
-0.500318876709586 -1.1230023589949238 12.69398568633298
-0.9105509931170884 -1.102984473062598 13.60574711067085
-1.3681691757512695 -1.0656519777226514 14.494111835158648
-1.8657937646201042 -1.0146676248379356 15.36000464856805
-2.3945721197697436 -0.9539850931946764 16.206592553914334
-2.945433031272309 -0.8870083368182947 17.038497819124178
-3.5101766783854416 -0.8164373107197679 17.86074130089874
-4.082040640025324 -0.744702789752142 18.677947375202574
-4.655921724800738 -0.6741029439876434 19.493837173101177
-5.228037138678414 -0.6068357348665431 20.311247153331802
-5.795404926387591 -0.5452470469245773 21.132405254422927
-6.3555372052542225 -0.49173647598858006 21.959078375414396
-6.906004984121429 -0.44829364793679605 22.792803716950726
-7.444293069020667 -0.41601468408370723 23.634946226356398
-7.968106403725585 -0.394943066545817 24.48651864096343
-8.475912602065087 -0.38414520452218415 25.34792230423849
-8.96714613171146 -0.38198507118295444 26.218947535316858
-9.442084871159306 -0.3857018632906847 27.098958546173037
-9.901931696676753 -0.39206040176482415 27.986934033475475
-10.348056609838505 -0.3979597509950382 28.881885294458485
-10.782019166059902 -0.3998731330121711 29.782814169990314
-11.205918648811725 -0.3934087602268217 30.688500341027076
-11.622707639144371 -0.37454512806216 31.597307856906564
-12.03522519923389 -0.3417635555243369 32.507667473277884
-12.44479077143872 -0.2946362984017177 33.418730074694835
-12.851924283427342 -0.2332006200396535 34.33003022329572
-13.256840659854968 -0.15833439724686185 35.24131381076203
-13.659613192474374 -0.07325693898803945 36.15265135144801
-14.060161454107357 0.017604194691812486 37.0644108287715
-14.45781022880091 0.11108837146498325 37.97717375564669
-14.851665363138425 0.20231765109477984 38.89180775441024
-15.242201132698577 0.2849922520138606 39.80867564187109
-15.62974492338216 0.35319409897012066 40.728000567223575
[...]
CELL_DATA 87
SCALARS quad_param_group int 1
LOOKUP_TABLE default
3
3
3
3
0
1
2
3
1
0
0
0
1
0
0
0
1
1
1
3
2
0
1
2
2
0
0
2
2
1
2
3
3
2
0
0
1
1
1
2
0
3
3
2
3
0
0
3
3
3
2
1
3
2
2
2
2
2
2
2
1
1
0
1
3
3
3
2
3
2
3
3
0
0
3
1
1
3
1
1
0
0
0
1
2
1
1
SCALARS single_component_feature float 1
LOOKUP_TABLE default
-0.008421934773496446
0.008519259519042786
0.03234867230881415
-0.015651885749764713
0.029705284372527764
0.033083024472005056
0.03330187527211122
-0.014483984103505598
-0.0054537240884387495
-0.028284627619068685
-0.040324064137716234
0.02626427974543387
-0.004057428437854685
-0.05486567981935385
0.05874979675147422
-0.006721468665455088
-0.012470983431181637
0.0406839362366315
0.00378773893357872
0.018715872676003845
0.029478922947325247
-0.027524332566218175
-0.06583728460111563
0.004441470135836692
0.04916310608576649
-0.009945358329636916
-0.0608436024363716
0.05811713434740326
0.008936992246863038
-0.057072875113867376
0.03073120774426702
0.029450503827290156
0.014752581563298256
-0.06719917742019467
-0.05924775190529567
0.048944748873878896
0.0445165640081007
-0.028130589921104752
-0.0017229292898629095
0.006052849966323243
-0.06857281916946908
0.024908481201080187
-0.050957160532706436
-0.04789220919335729
-0.033949186949157516
0.05479686712110272
0.07310963929595414
-0.0015114974345059456
0.010985414834595503
0.005621549104648155
0.0054930314168268185
0.011140395005711876
-0.06034870898101155
-0.003041675306781802
0.013223594869792861
-0.031306513965075125
0.029575605377921272
0.034967218356754606
-0.0509950070952482
-0.022105388238050337
0.027802083632225437
-0.02349834352318672
-0.005230333294058892
0.03463853949268343
-0.019093007977083513
0.015892711193332895
0.008599289814098268
0.019316629531996386
-0.0029843496837966693
0.046731145983437465
-0.0026169521755459862
0.017646580280806082
-0.04258149211030709
0.05611031486588951
0.035163499410726606
0.0077967499525431055
0.03063004227066897
-0.007871917055003647
0.020193564980647324
-0.056425353275099566
-0.05051656933700281
-0.015546010379516997
-0.0459382164852041
-0.0068208868400538025
-0.04042592887860283
0.023367549542901794
0.0410328907190078
POINT_DATA 5568
SCALARS single_curvature float 1
LOOKUP_TABLE default
0.009482410323004092
0.015505092142384536
0.020089343921599122
0.028545201916498536
0.03750392584754598
0.04571272490782397
0.05265438019496625
0.058220528222012256
0.06217585577875773
0.06443868713943039
0.06489012635480154
0.0630655747456816
0.05871956235958627
0.05201759744072709
0.04367327556050956
0.03473873118865923
0.026221464974323195
0.018922922703796117
0.01356963613575961
0.01068201101325623
0.010220520657569775
0.011788239801209192
0.014578397817829492
0.017596239979845378
0.020098384236067652
0.021562205618498188
0.021797995718282743
0.02097036049722495
0.019560230271418552
0.018141461911981134
0.01725124129918638
0.016899843538957727
0.016636576192267404
0.01648442267155248
0.015998931286508814
0.014635637388290879
0.012364705097975784
0.009186934284623765
0.005817707387385091
0.004186321396779221
0.00491815582505295
0.007909605879549348
0.013102664433552291
0.018395283952895646
0.022903383468397428
0.026486761417412324
0.02838280655588985
0.029329974275912208
0.029769589014567357
0.029947182397602766
0.0301560876125478
0.03037032631043716
0.030821819801668596
0.03142746734273249
0.032242087923995084
0.033067665003142184
0.03371742530151779
0.033974696839258606
0.033579222740365906
0.032450864417316025
0.02391311139768478
0.015375358378053539
0.006837605358422295
-0.0017001476612089478
0.013788700473964197
0.022081282019403105
0.02857239929742109
0.03662997903612172
0.04385827214096836
0.050042873539151704
0.05492903884409871
0.058788383899130416
0.06148399856984743
0.06297159564709799
0.06317156616039288
0.06149342897536359
0.057509187432132486
0.05116531552988163
0.04288386705092703
0.03364609432367402
0.02456433981640003
0.016652318649997104
0.011044943364340323
0.00842720253714739
0.008584473626946797
0.01088214984584443
0.014129427764834218
0.017203524046334545
0.019578456098295314
0.02092845972391307
0.02113419978133111
0.020312750954111333
0.01890110698601148
0.01740868841991732
0.01635327571664734
0.01589349819964318
0.015672534486221648
0.015648108551101114
0.01542926252409602
0.01453120284768997
0.012752725141431217
0.009994928520050425
0.0068537638273627145
0.004891950207428336
0.005214144838898413
0.007897153597153072
0.012987369133005949
0.01847651631043537
0.023047965296549677
0.0265955417178263
0.028376994110113532
0.029214528885167686
0.029730248886353113
0.03010637856414229
0.030527554210503165
0.0309700312446457
0.031526988281800956
0.032096974410042035
0.032769725984449265
0.03342121218638
0.03388396477545196
0.03399332163909816
0.03352214285304882
0.03235117975792745
0.023829689046147424
0.015308198334367397
0.00678670762258737
-0.0017347830891926569
0.023268659781700618
0.03480935909340557
0.041775586068251394
0.04818542041295822
0.05280502391420591
0.05605361651953607
0.05801189157138027
0.05950129321328345
0.06050597009566077
0.060996763414177375
0.06092264653504375
0.059509447672763616
0.05606594787241705
0.05025720288458244
0.042126830393912296
0.032565491658154457
0.02280791699707752
0.014000377139420081
0.008204563563550172
0.005956078714322697
0.006797806791669059
0.010040923005630302
0.013659265210134566
0.016732237061054808
0.01904237408089119
0.020387576853733196
0.020630350020545304
0.01979966139401535
0.018297669247657383
0.016574898326920516
0.015179708153065402
0.014520518497754806
0.014330835297197723
0.014465087094037642
0.014611090284724067
0.014356688197350231
0.01330516463414022
0.01119253930258206
0.008573148130737186
0.006368628223334849
0.006121171900474152
0.00831362375156293
0.01306398805065993
0.018595510765272796
0.023184266525915164
0.026657135797376642
0.028246602593609435
0.028898693810891753
0.02951237710396987
0.030175082681929134
0.03090007678388847
0.03165944252126571
0.03234768378004728
0.03284711318793601
0.03330764291671035
0.03370753608940072
0.03390360078115231
0.03380641621623628
0.03323711172653078
0.03202216747642833
0.023577540946772387
0.015132914417116443
0.0066882878874604985
-0.0017563386421954458
0.008821242543113679
0.013887719809622157
0.01720659490495376
0.02515714682736579
0.034801014566793395
0.043856528420643096
0.051666437386241486
0.057962641277680436
0.062465121749743835
0.06507189553473501
0.06564410877910454
0.06376902349025977
0.05927663677717077
0.05242920091074769
0.04406910430375401
0.035278523901098875
0.027012788315783763
0.019970102813761614
0.014731570702658936
0.011728139001095402
0.010980105200514798
0.012222864986665393
0.014796512154069217
0.017781357805162618
0.020358959615465282
0.021897339121773263
0.02215628368532222
0.021319613417868997
0.01989382191115069
0.018487551145621325
0.017654973392203937
0.017344094138977063
0.01705762399079415
0.016844667460741806
0.016239244741118496
0.014673809550093233
0.012197625754840999
0.008846817640468723
0.005459103800932655
0.004003672979254123
0.004913289204671671
0.008030313328058404
0.013190096264571596
0.018362520863981286
0.022830489742047922
0.02642453605362625
0.028363517904996745
0.02935144840328606
0.02975726519548779
0.029852199872218297
0.02997227166964353
0.030089222297383856
0.03049303962380022
0.031110145149462427
0.03198253606282941
0.03288057290965609
0.03360883123898955
0.033929009020398374
0.0335671208504924
0.032459684318346234
0.02392462654622798
0.015389568774109727
0.006854511001991474
-0.0016805467701267798
0.022119361170888155
0.03329725355098154
0.04028195321903296
0.04689692205919036
0.0518138669892845
0.05539290166953477
0.05767744775924258
0.05942701720653397
0.06061339778536524
0.06120844332757213
0.061159930122977595
0.05971430411860417
0.056209593693537084
0.05034014169859119
0.04218936654868723
0.03265681227556314
0.02296288304331541
0.014254726202118751
0.008459279714900701
0.0061712563141425565
0.006952358281097187
0.010097332209498273
0.0137017758136995
0.01678055445607686
0.019091571053968664
0.020428002867308555
0.02066111318050196
0.01983152484574853
0.018344220079518643
0.016654947762585016
0.015305160136500042
0.014671520434235145
0.014480143419381484
0.014597587859521881
0.014702758766341821
0.014377264656245553
0.013242923170764882
0.011054838763713931
0.008369789483468401
0.006178569570806168
0.005994272735047629
0.008245279150640404
0.013040917566730979
0.018582187000383298
0.023173076639292016
0.02665555175361291
0.028267959909005255
0.028942297595651836
0.02954571286938157
0.030176405639959315
0.030867604885574985
0.03159227285464011
0.032267020992119214
0.032775412672505326
0.03326007979109016
0.033688105397373797
0.03391379404682151
0.03383930905099926
0.033280356739726694
0.032069353315100114
0.02361313801155023
0.015156922708000342
0.006700707404450456
-0.0017555078990994302
0.023590590287901027
0.035232169741590894
0.04219138487524769
0.04854358130659953
0.0530802663902716
0.0562368616835176
0.058104449245240525
0.059521721247428404
0.0604762117704442
0.06093834844036927
0.06085733704023084
0.059453270514081974
0.05602681184148055
0.05023497718128856
0.042110434086553024
0.03254144930777214
0.022766882054169105
0.013931978558863524
0.008137346052778388
0.0058997431213222385
0.006757446992906248
0.01002727773785646
0.013647880221945715
0.016718970833932933
0.019029132570460495
0.02037718976608534
0.0206229200458935
0.019791953076663808
0.018285694398619542
0.01655325802242652
0.015145074592507312
0.014478614128518415
0.014289313508404603
0.014428203923256267
0.014585589050717825
0.014350928666565241
0.01332251139741245
0.01123103762358359
0.008630214606080454
0.006422601421815704
0.006157593688255113
0.008333576490394833
0.013071041489843014
0.01859921624449619
0.023187202923415674
0.026657348232580966
0.028240373133125312
0.02888621397225685
0.02950272130629148
0.03017432446471199
0.030908705238678325
0.03167768428496858
0.032369624650561785
0.03286651556470821
0.03332031734444738
0.03371238989758256
0.03390022783614194
0.03379674999959359
0.03322459443537801
0.03200859709478056
0.023567322558665102
0.015126048022549646
0.0066847734864341896
-0.0017565010496812666
0.023686740474716438
0.03535839140183817
0.04231536931504387
0.048650336373529356
0.05316228414375641
0.05629144600501742
0.05813200325765732
0.059527791926093115
0.060467350922587364
0.06092097335397422
0.06083792568951013
0.05943659105449001
0.05601521379619726
0.050228422379234756
0.04210563011788615
0.032534396583984396
0.022754825848240907
0.013911796400416232
0.008117627131713833
0.0058832580293570235
0.00674564736697456
0.010023384978242284
0.013644522865382248
0.01671503020969173
0.01902522179797045
0.020374164838104475
0.020620799639805294
0.019789752413510123
0.01828220687460228
0.016546859791896466
0.015134771728623656
0.01446612963291522
0.014276935475533594
0.014417205709436628
0.01457798634143363
0.014349208711013996
0.013327685874899058
0.01124253167232673
0.008647269893854831
0.006438785206048868
0.006168546321850145
0.0083396038475259
0.013073197509253417
0.018600320887179632
0.023188063585626126
0.026657392485005333
0.02823849186273779
0.028882464124462565
0.029499810657607133
0.030174065746151453
0.03091124370496602
0.031683085444824705
0.03237612404088348
0.03287225436195511
0.033324049250780106
0.03371379072876955
0.03389917724928277
0.03379382501918048
0.033220821882977765
0.03200451420760886
0.02356424972755758
0.0151239852475063
0.00668372076745502
-0.001756543712596259
0.008871385703628035
0.014091770494541852
0.01762853010768024
0.025700445095801362
0.035237122870407936
0.04415657488456411
0.05182663573642932
0.05800492106771295
0.06241873193931453
0.06496948984115891
0.0655216661656259
0.06365423599911914
0.05918512790782343
0.05236086300801617
0.04400287123943521
0.035188506401875
0.02688181176689256
0.019797997170715
0.014540861165618474
0.011556168390875357
0.010855222714861328
0.012151033594275926
0.014760264108114683
0.017750687168130524
0.020315238834411758
0.021840569227939335
0.022095430569649493
0.02126052705277033
0.019837911984093917
0.01843029267828774
0.017588792953123742
0.017271551440696073
0.016989050411822255
0.016786233689980598
0.016200525149035763
0.014667928678378222
0.01222473375210331
0.008901705436923717
0.00551271962639991
0.004027542099849075
0.004908278711264617
0.008005172364035881
0.013174506034868968
0.018367706152329372
0.02284268804246206
0.026435200020347077
0.02836749409923763
0.02934908999737291
0.02976041348931648
0.029868603061730767
0.03000293845178785
0.03013558340909165
0.030547201598341008
0.031162609113840677
0.03202578913765479
0.03291220702021752
0.033627850263553825
0.03393788451801918
0.03357052398397075
0.032459600357714724
0.02392372393866424
0.015387847519613758
0.006851971100563275
-0.0016839053184872083
0.009990781406648093
0.016408317990428127
0.02144429558157241
0.02994971909524804
0.038615516891446426
0.04647368233321901
0.053057214744779375
0.058323725115706444
0.06205581263592387
0.06417951733199358
0.06458365881798307
0.06278198662599489
0.05849756523612323
0.051856675485860024
0.04352073303771408
0.03452944002210477
0.025910446279903406
0.018505930445946926
0.013106050088192238
0.010265853602032473
0.009918430010983624
0.011617199036147198
0.014493290032934824
0.017523425658725097
0.019998271182305148
0.021435864833192743
0.0216637408116886
0.020838574992383688
0.01943207596965031
0.018005140104547606
0.0170893678458293
0.01672047230064884
0.0164658110914346
0.016337371699832348
0.015899817962828022
0.014618788904698348
0.012432891645323976
0.009327030830607054
0.0059823481506060565
0.004284521259978726
0.0049439864599074524
0.007883066679800568
0.013073159644949395
0.018409137736055903
0.022931442590257284
0.02650963514957501
0.028387001713852927
0.029316374331937217
0.029769652623269433
0.02998157574063735
0.030227295022842056
0.03048153822838631
0.030952164983045403
0.031552455103371777
0.03234285460542237
0.03313833522299643
0.033755609668426806
0.03398699319205535
0.03357793967002588
0.0324414578609708
0.02390425170312663
0.01536704554528246
0.0068298393874382905
-0.0017073667704058798
0.009427621576026732
0.012844049196077779
0.01358934340945162
0.019537872149352317
0.030099807211261823
0.04060904361573301
0.049920738063146015
0.057490376701918686
0.06295671381002597
0.06617905692737369
0.06698060359495636
0.06503567878092179
0.060301332182839576
0.053211930365918474
0.044839896154869094
0.03631860480527812
0.028502797116023514
0.021901015132320744
0.01686347978653028
0.013656156600362788
0.012380398530861172
0.01303523288262158
0.015212381730702851
0.018133197161690137
0.020873087666049908
0.02257624167160923
0.02288624563942265
0.022022111779628796
0.020546660068794614
0.01914075964704677
0.018397890091821367
0.018152305388001652
0.017817067744602552
0.017485122502326714
0.01665603007722547
0.01472988187143183
0.01190020808643818
0.008251438757834939
0.004969860210204567
0.0038674519565410014
0.005094351944035171
0.008427318005722287
0.013393806998095727
0.018309855158050486
0.022688974683704736
0.02629495693854745
0.028300072947521022
0.029350271955835158
0.02969549757571154
0.029649722227991105
0.02961793005905853
0.029565978282637417
0.02988315909190214
0.030514877291837703
0.031483751460553676
0.03250512381774211
0.033367989987663445
0.033797254439142596
0.03349561311860024
0.03242845228555414
0.023911446216145726
0.015394440146737312
0.0068774340773288985
-0.0016395719920795152
0.012476281457655659
0.014348377214417195
0.012446167911949114
0.01599678903117391
0.025655767754892526
0.03751786140030024
0.04824032230813563
0.05701604922846743
0.06340395342630796
0.06722595477616562
0.06826665028916029
0.06627815503315491
0.06133165711965433
0.054027634505394696
0.04566251995706522
0.037416634500015256
0.030039985917968547
0.02385385703511162
0.01900539232271164
0.015600523150107952
0.013792215363996774
0.013862033971575212
0.01564692503074713
0.018505252052266524
0.021435402848727858
0.02333318785829129
0.023700311167985398
0.022794479304749066
0.021247501674583048
0.01982304507048677
0.01916013067414239
0.018972808033733635
0.01858012319028024
0.01811549999963271
0.01705096149109137
0.014769447363875364
0.011606844081970689
0.007674848736329797
0.0045988978119071745
0.003884398191031958
0.005424040903584271
0.008963952034002635
0.013646646645105693
0.01826744890293031
0.02254004673224903
0.026149527439154423
0.02820696383787023
0.029305721914879627
0.029591731414675346
0.029416902108853348
0.0292450909075237
0.029034316224028935
0.02926550605370346
0.02990481730993016
0.030959964779205727
0.032094436257918274
0.03308196409676336
0.033613735269329696
0.033371080742890566
0.03234644233815993
0.023861621074798216
0.015376799811436505
0.006891978548074794
-0.001592842715286917
0.020648539962173466
0.0313549591252735
0.038345590342614325
0.045221574886159466
0.05052284291842268
0.054530324250458104
0.05723914949335702
0.05932856979781415
0.06075387502212411
0.06148714938503432
0.061473795501667525
0.05998702832161986
0.056402986909591536
0.05045492785045478
0.04227895723168501
0.032786747789699276
0.023180981955248505
0.014603194754480431
0.008818279342552597
0.0064780320752505826
0.007173402491939145
0.010187060317307088
0.013760719076187502
0.016844815793393884
0.019159274963482603
0.020487806852393518
0.020710580030370216
0.0198825801123447
0.018412766190564502
0.016764072840170265
0.015470263810094106
0.014868473620262293
0.014674176387762562
0.014769481182998334
0.014821775717209136
0.014403660005531956
0.013162343327984233
0.010877589631342851
0.008109842916086595
0.005941048218802879
0.005838936561837044
0.008164497400080878
0.013016355838831558
0.018564877902769106
0.023157049057651365
0.02665155338695469
0.028293235748930945
0.028995930553743908
0.029585743437914928
0.03017481247975566
0.030822018109093803
0.031501312595641894
0.03215808349224363
0.03267772645760207
0.03319361565480781
0.03365820742539102
0.033922472992329436
0.033877637365517466
0.03333236788137405
0.032126846373173756
0.02365667301967261
0.015186499666171464
0.006716326312670318
-0.0017538470408308277
0.010272712676789626
0.016876436353585815
0.022108823232997937
0.0306125334896835
0.03913875089062677
0.0468313724368469
0.053246121119326556
0.058371727840852754
0.06199912401726392
0.06405783147095782
0.06444019107186214
0.06264970096759288
0.05839453673077039
0.05178263718873374
0.043451021745929325
0.034433533082664565
0.025767035807246704
0.018312462258204643
0.012890841257949445
0.010072936616256481
0.009778408430635524
0.011538356896922659
0.014454173354088547
0.017489788736605533
0.019952532147000403
0.021378690870784228
0.021603197135255166
0.020778963801991967
0.01937360269739825
0.0179421706338311
0.017013941427368222
0.016636619557913405
0.016385827427247812
0.016268320044530972
0.015853095718618912
0.014610637408968195
0.012464911390515282
0.00939308804722727
0.006062838096272567
0.00433496256766814
0.00496049029318172
0.007874730653647355
0.013060601305695122
0.018415722594300524
0.022944252709007244
0.026519844678366076
0.028388215573149973
0.029309006170399856
0.029768666593937825
0.02999681257033583
0.030259912549740624
0.030532980162349822
0.031012515176333973
0.03161015370179869
0.03238906152491356
0.03317031907552908
0.03377226473201293
0.03399146158003931
0.03357606423603296
0.03243585634872735
0.023899243577546362
0.015362630806365372
0.006826018035184383
-0.0017105947359966067
0.017721153217562343
0.01791028106508888
0.012748384718123855
0.013309181047843068
0.020494603435562364
0.03380541001064908
0.04620113766468219
0.05641503701938069
0.06390950503939874
0.06846597147248767
0.0698204953773659
0.06781078132657584
0.06263503420121512
0.05509476280431946
0.04676163817359857
0.038870524772739085
0.03203711928072699
0.026351462310452694
0.021726839170849447
0.018076518710475272
0.015587821729658481
0.014917876286918283
0.01621786957293412
0.0190069713645123
0.022211899697075266
0.024388150944434618
0.02482925199072448
0.023851380495144153
0.022191173640739262
0.020730326016380796
0.02016800436248367