# vtk DataFile Version 3.0
vtk output
ASCII
DATASET POLYDATA
POINTS 5568 float
0.0 0.0 0.0
0.14937463934367728 -0.049965719662245514 0.987517414519653
0.29910219215194284 -0.11223080066637593 1.9742821887275679
0.43871237872175056 -0.18067864643126624 2.962120175553388
0.557731474560405 -0.25047973809005236 3.9525555658888663
0.646985189714546 -0.31754384248162737 4.9463041156907455
0.6981942898334019 -0.3780661306868323 5.94315650230344
0.7044400480089448 -0.4295901118732998 6.941808728990743
0.659226400241099 -0.47065921825076096 7.939941513021445
0.5574208469921513 -0.5002623072902295 8.934305272642138
0.396048039532903 -0.5172578584926425 9.921052437954533
0.17348262552792246 -0.5201690998953363 10.895965850090342
-0.11028723424407649 -0.5077006064976385 11.854777199291721
-0.45360545116950035 -0.4795586835405423 12.793574639690567
-0.852786679678965 -0.43687542920594485 13.709452626436118
-1.3017091880158138 -0.3823555752921214 14.601358544702034
-1.7923365993840301 -0.3196473852823392 15.4704686793339
-2.315801297779876 -0.2524421548304252 16.319861501609466
-2.863502224706352 -0.1838679581423966 17.153720766829004
-3.427889002212348 -0.11653148018703254 17.97648036969789
-4.002683243933259 -0.052759364027819874 18.792289597940044
-4.582728070829998 0.005491964708307914 19.604788694241577
-5.1636598188979 0.0565009670786224 20.417141072070287
-5.741580382510259 0.0987773227300541 21.23213833090421
-6.312804070946071 0.1312432606680593 22.052290426947128
-6.873720880722035 0.1534036709958601 22.87986595143106
-7.420947374100298 0.1655838274574999 23.716761888052513
-7.951679844475668 0.16908614432524943 24.564294057746274
-8.464365930240504 0.16596451828934372 25.42286451665691
-8.958967267636185 0.15847827828510752 26.29195224137577
-9.436420914593958 0.14914613212180533 27.17055962016035
-9.898132117482318 0.1406437691792239 28.05754917756888
-10.34551097363806 0.13579120456249322 28.951880554454103
-10.780043859029607 0.13785879968008866 29.852534148553257
-11.203348926470339 0.15073364680388596 30.75842987003037
-11.6177906629022 0.1774427881014597 31.668113699102037
-12.026563214823193 0.2189344866563443 32.57980632260353
-12.431384379115968 0.2755674137960728 33.492446742760464
-12.833194942972051 0.34675278033808515 34.405398501816734
-13.232639913520105 0.42972877909733403 35.318392860580126
-13.63037266660983 0.5201492147707979 36.231427800728795
-14.026571090817962 0.6139828792653496 37.14478537148765
-14.421063611167902 0.7080101279562171 38.058861149468655
-14.813578557111727 0.7975853246113225 38.97423446203294
-15.204153027960363 0.877464737869782 39.891333618099935
-15.59196035954445 0.9425320770436191 40.810774597686155
-15.975632501268532 0.9859212264575621 41.73322409190141
-16.353243070443224 1.0040833187484548 42.65901045843053
-16.72238588124058 0.9961029351427823 43.58834887833694
-17.079835717847903 0.9616835862187549 44.521646752934885
-17.421427051038922 0.9025888484578221 45.4596356510876
-17.742134775258343 0.8226017435437187 46.40343044799711
-18.03777268585676 0.7276497675506725 47.35399993418527
-18.30530744356456 0.6234944446269366 48.31190223720206
-18.543010143402842 0.5156998001119549 49.277240385781866
-18.75027928225175 0.4088826317044701 50.24967526617964
-18.92676615719941 0.30672448400487873 51.22866254690897
-19.072125120228343 0.21263125271172462 52.21355707714658
-19.18605454736397 0.13012591453085598 53.20361412338392
-19.269166557317828 0.06205887116330651 54.19782701376939
-19.322654628680176 0.010682582727248625 55.195072973003356
-19.348108317760488 -0.02236670348728774 56.19420252135678
-19.34766266495218 -0.03622993839450271 57.19410632278544
-19.324586426109438 -0.03090092712858651 58.19382582786664
0.0 0.0 0.0
0.22828892774555234 -0.1677649872397955 0.9590302782108693
0.42918678167963364 -0.3327624731515358 1.9246471183330192
0.6003541927128542 -0.4894587285995947 2.897348511839136
0.7361730899269509 -0.6331420566825295 3.8776078287500026
0.8292346503629473 -0.7614119155356439 4.8649711809557745
0.8731578151023175 -0.8726103001274584 5.857798293228323
0.8644005717084073 -0.9660414221411652 6.853385525030439
0.7999633744921935 -1.0411336706780059 7.848477983963075
0.6772024504651689 -1.0971364321070372 8.83933289072004
0.4946351642597601 -1.1331307632637884 9.82186716194531
0.25213723502977314 -1.1481101605389457 10.79190343548174
-0.04862528209799022 -1.1417493668667784 11.745581289159192
-0.40475760936539706 -1.1148710196248097 12.67963017434917
-0.8124587528400508 -1.0695188281220966 13.591618637179353
-1.2662919287443373 -1.0092361003603176 14.480663878537873
-1.7589689734190914 -0.9385416453357319 15.347999813270965
-2.2821237159908736 -0.8620375533996819 16.196796749670767
-2.8274463958996807 -0.7837110401047042 17.031355394759373
-3.3874811911993343 -0.7068683926929467 17.85625310695915
-3.955992067909786 -0.6344254535346552 18.675733066218694
-4.527995661352534 -0.5688368321811655 19.493357687813184
-5.09941994787467 -0.5122822941386739 20.31206146146973
-5.666754341860131 -0.4667498073443429 21.134289214618136
-6.226831416496924 -0.43391066180332194 21.962078596638968
-6.776705321283248 -0.4148789243991814 22.797109423498924
-7.313783402906628 -0.4096232126688519 23.64062558323385
-7.836056197088829 -0.4165665529313219 24.493375791960364
-8.34271151003619 -0.43279952552959966 25.35537166460874
-8.834339722048881 -0.45443740675051064 26.225907995412616
-9.312088433976102 -0.47706345563827646 27.1041131139149
-9.77729787804065 -0.49648276201861896 27.989100720434255
-10.231017232910624 -0.5087941626588897 28.880160301175437
-10.674026016732823 -0.5096863393957821 29.776677128388986
-11.10729646344205 -0.4946670504903049 30.67781593066595
-11.532723431093647 -0.46205979084995097 31.582221073184233
-11.952511833036597 -0.41283953353738984 32.48850748699847
-12.3668286052836 -0.3476204304510825 33.396300459447275
-12.775187481359742 -0.26772421297271864 34.30561867809379
-13.17758267424203 -0.17700609459742955 35.216578793435666
-13.575245907383728 -0.07979306819596887 36.12894581415987
-13.969073457137652 0.020401398322808607 37.042653059361434
-14.35973602710771 0.11980546163502173 37.957804188203774
-14.748123907448033 0.21286880329272176 38.87458882422482
-15.135574378932436 0.29362076933837516 39.79293584584915
-15.521949869927827 0.3573442232088346 40.713073499347196
-15.9058095847771 0.4001219683854781 41.63547351226645
-16.2844045980705 0.4206370740508167 42.560808557722375
-16.654745123191184 0.4177830322933465 43.48970023595993
-17.01331694559175 0.3903896509158077 44.42280036501203
-17.35604181894625 0.3391183220396158 45.360836031721675
-17.678082974681036 0.2666240976347008 46.30478204789046
-17.97522354578592 0.1781938453015191 47.2555120681779
-18.244742260869735 0.0793807057625669 48.21342418610627
-18.485290707368428 -0.02412435062009493 49.178526848101505
-18.696723517116045 -0.12743360343439764 50.1504442135422
-18.87868945960664 -0.22650586903282227 51.128745333833244
-19.030981414807997 -0.3175361310334559 52.11287980217639
-19.153239157065386 -0.3969260353882505 53.10219789437154
-19.24569702944805 -0.46183641985327695 54.095796497341105
-19.309049906191746 -0.5103055739072444 55.0926099975073
-19.344250836994973 -0.5412503756222807 56.09151105052377
-19.35303215497481 -0.5544547894082977 57.091385308573805
-19.338329419237013 -0.5506485273678333 58.0912699728882
0.0 0.0 0.0
0.1827835207582241 -0.09939511809189053 0.9781159415113971
0.35405178024172146 -0.20458098312011863 1.957709284226504
0.5069411057503856 -0.30989499386984143 2.9403250856897785
0.6330640920267117 -0.4106421782502593 3.927210589267655
0.7239937593374038 -0.5034340262680844 4.918735409201177
0.7722297511144027 -0.5853107254868213 5.914209916771478
0.7722473737042528 -0.6545076366687096 6.911812937603076
0.7190083075552486 -0.7099183304755923 7.908856194862972
0.6084271112569819 -0.7506429849792612 8.901888571747433
0.4381612606234227 -0.7756410206775474 9.886969603094224
0.20721945353651683 -0.7836357905365574 10.859904321045196
-0.08370548603011047 -0.7737394226356858 11.81659901709014
-0.43243734306876475 -0.7461302161000051 12.753414806667173
-0.8352417570790078 -0.7023271636457901 13.667652137260033
-1.2862838290214236 -0.6453873760781313 14.558336654880971
-1.7778391260650497 -0.5793231926723889 15.426673521321229
-2.3012473264635305 -0.5082076164583225 16.27578271958454
-2.8480262775224396 -0.4355297532935978 17.109899442162817
-3.410661872479594 -0.3641911725203989 17.933520710817575
-3.9828904906467852 -0.2967683348156047 18.750838622958437
-4.559626924436649 -0.23542990458423196 19.56546288169132
-5.136631078687034 -0.18209188091545514 20.380460587951227
-5.71017045052392 -0.1384534986457019 21.198475429226022
-6.276780948053709 -0.10583851774625808 22.021815460507128
-6.833134807583321 -0.08499515550343915 22.852499478191902
-7.376179827510799 -0.07571489374716603 23.692151777107174
-7.903443024088507 -0.07657979762585362 24.541853356178283
-8.413683389559441 -0.08518319853852994 25.401842164789663
-8.907127927051647 -0.09859055110413362 26.27151608719753
-9.384803176758142 -0.11349507973529238 27.149926134296333
-9.848092244549797 -0.12659756004192796 28.03603649123533
-10.298259116561697 -0.13463289797738637 28.9289447847836
-10.736495424421571 -0.13390206196957208 29.827804286792716
-11.164152111430827 -0.1202746173368224 30.731642796045918
-11.583405506067397 -0.09127437771869243 31.639048756566236
-11.997026884031895 -0.04680248146873485 32.54841095400722
-12.406060687059165 0.013042271578701962 33.45896570442793
-12.810835631009809 0.08736184553898191 34.3703568639616
-13.211719525464817 0.172968252162562 35.282477276139495
-13.609635942239349 0.26557091267135374 36.195213422311
-14.005109287652113 0.3614143376169808 37.108676541962105
-14.398303574639911 0.4570804703258662 38.023141546067066
-14.789385487653664 0.5475399407445817 38.93904111562973
-15.178904241916932 0.6272440658713918 39.85660440637046
[...]
CELL_DATA 87
SCALARS quad_param_group int 1
LOOKUP_TABLE default
3
3
3
3
0
1
2
3
1
0
0
0
1
0
0
0
1
1
1
3
2
0
1
2
2
0
0
2
2
1
2
3
3
2
0
0
1
1
1
2
0
3
3
2
3
0
0
3
3
3
2
1
3
2
2
2
2
2
2
2
1
1
0
1
3
3
3
2
3
2
3
3
0
0
3
1
1
3
1
1
0
0
0
1
2
1
1
SCALARS single_component_feature float 1
LOOKUP_TABLE default
-0.0034194264494904827
-0.03555737028810194
-0.016897745128848195
0.0038365211146425054
0.005185667003826482
-0.02741239577207965
-0.0043400223483077115
0.0063641674303672804
-0.0243094205530759
-0.04786787149779279
0.029834252887283245
-0.038525849953059195
0.01466438546112581
-0.03946317473628751
0.041244219270672094
-0.0322054858295568
-0.0054003130354814835
-0.013492045340939934
-0.0022471356865018874
-0.031162425776296875
-0.05336708308643631
-0.07609267268332673
-0.017505651639275737
-0.016894074034912415
0.04665086495457713
-0.05811901933665397
0.04788439336045755
0.06622581424204332
0.04062894541165927
-0.05512351454649234
0.020961398428993232
0.016303217958489276
0.014097725799382444
0.01799954666666056
0.07103030689045732
0.036587531407213054
-0.006294458264222834
0.018614245140171307
0.04525377284607786
-0.058318850210013665
-0.007547476633396062
-0.016523528436868218
-0.004278191093277821
-0.01901215690154147
-0.02585852673261028
-0.07424320470450396
-0.004888498496158605
-0.024639554728088587
0.023925463374735646
-0.012469526973222927
-0.017119616181610404
-0.013877677691891663
-0.01759407776781484
0.009330452772124468
0.01028788949693301
-0.032737149863734064
0.024151847033927587
0.04394886152481664
0.01671346428678651
0.04793019076540944
-0.04522040537683634
-0.028582884940765805
0.011662367049007864
0.031505971446641384
-0.01574031897563602
0.015157415757180492
-0.04958319171252032
0.031147096074196898
0.03589852828118362
-0.031096038330851117
0.0001748210033473141
-0.01170481296169694
0.02548641617916502
-0.0034196937773117234
0.007937754303744465
0.0061664898346798554
-0.013379319205975607
0.04356244408184447
-0.015980308728873394
0.018885601041173417
0.07684544125072022
0.06351554459839838
0.00915700837934267
-0.022143191861309124
0.007847148873617177
0.014609124303259663
0.05244104028731364
POINT_DATA 5568
SCALARS single_curvature float 1
LOOKUP_TABLE default
0.011256930971829192
0.018772852889906128
0.02536788644151754
0.0338536128453884
0.04176673346875009
0.048694959256376576
0.05433300050063502
0.058815387069867754
0.06195373917260267
0.06366520497270678
0.06385088088654023
0.06200399666241921
0.057799148965324086
0.05127980379672309
0.042982876167359456
0.03390369490360866
0.02511085691999397
0.0175515080743036
0.012173061505788736
0.009556040611595311
0.009540029588712669
0.01155214433303502
0.0145610640025148
0.017522654341213705
0.019826284595732373
0.02107916401717414
0.021169886486577257
0.020269224065386837
0.018856071416524456
0.017489479935614227
0.016675424711169326
0.016427230493737743
0.01628915363834961
0.016232891225198373
0.015838483751064537
0.014630008047838379
0.01255041178981625
0.009570673579158374
0.006320276317840382
0.00457429657421305
0.00517392146202508
0.008046961673067681
0.013149073553440284
0.01842654885561268
0.022841714263199985
0.026321419343109786
0.02817745850143994
0.02916296560875264
0.029728304451219836
0.030049961886828874
0.030363242924925562
0.03065289617619869
0.03111294098050275
0.031668801730575846
0.0324011860041029
0.033154943049202995
0.03373466771462201
0.03394745520714454
0.03353504539988498
0.032383924393388656
0.023857630263019566
0.015331336132650475
0.006805042002281384
-0.0017212521280877066
0.024590588977599342
0.03607747084848239
0.04206405496541331
0.0480460110536049
0.05308005529117804
0.0569420656679678
0.05975526799107962
0.062009314220043604
0.06338826947753855
0.06356521045952748
0.062431877771756454
0.05967477152260495
0.05507793616760711
0.04858081979879749
0.04044197078843108
0.03146352683297701
0.022792681502618525
0.01573933862258388
0.011417474648307821
0.01007029127143477
0.011236052571242742
0.01391531627868843
0.016792192673436273
0.01904552552617182
0.02023112042442865
0.020100406122541024
0.01891600569472435
0.017247225074472156
0.015853831867701337
0.015471510511972908
0.016303980704777173
0.01753359606927143
0.0182412436149742
0.018340102828197237
0.017514080859557146
0.01574780715085349
0.013376895701516692
0.010393466570432946
0.007307311810346665
0.005924090335813455
0.006995844109517116
0.010024594447313247
0.01443607319319173
0.018467745187973107
0.021614189326145512
0.024208034998303322
0.026171993989531992
0.027958791630625673
0.029280770045620748
0.029987763183253916
0.03027138163483471
0.030192636656802375
0.030221318893861676
0.030451686679752895
0.031053313964035364
0.03192801639734806
0.032710723812280594
0.03319337564641843
0.03299682260911461
0.03189610994179826
0.0235082860256123
0.015120462109426337
0.006732638193240374
-0.0016551857229455888
0.014769685886742975
0.02385930014873165
0.031668058608812576
0.03947366041954976
0.04633846630182996
0.05205713727181392
0.05653614839221401
0.06008721018596629
0.06248788789745237
0.06356091269007591
0.06320330701787241
0.06098769803174665
0.0566310850700875
0.05013200802321467
0.04190999112861348
0.032877241471905086
0.02412985496178144
0.016756986479770603
0.01180951076603877
0.00972746473124679
0.010212120110837195
0.012515906989189796
0.015456782838195104
0.018093423417305524
0.019911325549478574
0.020591050617869224
0.020168593804013996
0.018952547470024547
0.017523429574647337
0.01651928244983629
0.016348982001713842
0.01671448805155872
0.016953800411362206
0.016986491321233164
0.016412566218280078
0.014933502652472896
0.0126950106037048
0.009704522268619066
0.0065509264552396996
0.005010556807971053
0.005853122485096209
0.008821550709060579
0.013653219844865073
0.01841492498256097
0.022307410242276532
0.025428079676286415
0.027335828358345225
0.02866889175733836
0.0295664188733852
0.0300607324036162
0.0303670876404511
0.030504281610834964
0.030784957065180352
0.03120628936139185
0.03188613037168506
0.0326931830444417
0.033359986130025596
0.033686743774173473
0.03336146082475213
0.03221957664304664
0.023736713748900934
0.015253850854755231
0.006770987960609529
-0.001711874933536174
0.01154783305721543
0.018297103128189857
0.02295361124673199
0.031151560630263996
0.03944952357953097
0.04695881561916985
0.05319654650520806
0.05817400486274198
0.061706503552805755
0.06375656641996523
0.06422750483849417
0.06257084327389595
0.05844038055694288
0.05190429748717615
0.04356267394674958
0.0344565724598179
0.025642490749522507
0.01799786146019125
0.01239790805171913
0.009491739924718127
0.009204485538888056
0.01105442223307775
0.01410541158812558
0.017258211829325937
0.01983203104374275
0.021388070854642238
0.021742533046274132
0.021007424715494875
0.01961567594923532
0.01808400387302215
0.016952710550994912
0.016377502098622442
0.01601930160727034
0.015894715481604628
0.015590858046857104
0.014551716291592035
0.012586749070260727
0.009626263702281928
0.006312526127393647
0.004423090887457972
0.004863959566124409
0.007665781468266755
0.012898034561689883
0.018447065126197277
0.023136112477856477
0.02680027295534438
0.02862473944483654
0.029417443563762077
0.029796190005024023
0.030018941077458085
0.03033278309167059
0.030703018505373113
0.03125835252340254
0.03188522399856655
0.03264447499908076
0.03336817710960876
0.03390003808300425
0.03405120904998578
0.03359412032516845
0.03244526546171582
0.023905153713849096
0.015365041965982373
0.00682493021811565
-0.0017151815297510725
0.011738304383425498
0.018352824779745154
0.02260917661087481
0.030682418075047457
0.039032171523142575
0.046642575172946066
0.052989429424546694
0.05805822469187997
0.06166364390129562
0.06377618133277038
0.064299551177247
0.06267760204088951
0.058560417703513064
0.05202080347989343
0.04367056403962556
0.03455933117469596
0.02574154136492206
0.018082183624760776
0.01244202107641406
0.009482016160913305
0.009144256614071125
0.010963755573166279
0.014022861508306634
0.017212443742378295
0.019837107590829142
0.021449047381258624
0.02185160595300038
0.0211469825428217
0.01976014998544814
0.01820006532634611
0.017012106870658843
0.01637632788920254
0.01597572067738499
0.01583663550831085
0.015548959684655252
0.014543194529561853
0.01260204467694907
0.009646420057189149
0.0063203076867702985
0.004401635145060917
0.004810833375116582
0.007597889187220184
0.012852909369911599
0.01845186991349053
0.023191179565905478
0.026888896440728886
0.028707211409413465
0.029463684982920173
0.029807195243466603
0.030011129338926284
0.030324837890191702
0.03070992795728767
0.031282864675441495
0.031922820136342435
0.032686955883676386
0.03340497402523893
0.03392786892337788
0.03406757348957469
0.0336023566177801
0.032454482377567546
0.02391256312123534
0.015370643864903132
0.006828724608570924
-0.0017131946477612833
0.020051969494408788
0.030467873455895453
0.03739188706118196
0.0442206591686081
0.0500894136709681
0.05478157614708435
0.05832816915932437
0.0611481607568427
0.06297225437477591
0.06354138514889697
0.06274956692151666
0.06023306580636996
0.055745459096708465
0.04925146534344147
0.041079530920644744
0.03207902217570187
0.023372745216717568
0.016171245923070617
0.011573125636396486
0.009906088811958343
0.010776694008296108
0.013296565358958876
0.016196513621272723
0.018607564470430393
0.020062984525631006
0.020288070589804107
0.01944370572870938
0.017974510114389646
0.016556565256948944
0.015885858052137228
0.01626513111059677
0.01711555638702824
0.01762550249613078
0.017701288059933717
0.016983866459300636
0.015331063686061935
0.013008083188602212
0.010021535122234138
0.0069172061670032085
0.005483386290628697
0.0064697714069191
0.009481423680436224
0.014081772930526842
0.018433685418504223
0.02190836946019889
0.02473597227747325
0.026677623020724905
0.02827063888476331
0.029412735528176946
0.03003084621288275
0.030326303713999154
0.030342427708853842
0.030481517930216553
0.030795841892317394
0.031432369085831746
0.03227846511198335
0.03301129444568882
0.03342623193033994
0.03317239895161734
0.03204972829958362
0.023615776009622422
0.015181823719661224
0.006747871429700025
-0.0016860808602611743
0.01131953373854383
0.018937289086440195
0.025735849304458436
0.03421538981687362
0.04206874501874579
0.04891923101016921
0.05447979825965472
0.05889897699160039
0.061987123932967333
0.06365534219296466
0.06380444504537494
0.06193300527639991
0.057718358267572066
0.05120085656148974
0.042909393071305604
0.03383353956502242
0.025043555559959085
0.017495770568234963
0.012146012265149542
0.00956562469615375
0.00958396385677485
0.011616436974200664
0.014620247857975527
0.017558383631779338
0.019828145755213144
0.021042272956682814
0.02109891507269268
0.020177044364820578
0.0187617957788448
0.01741764099346014
0.01664532408679564
0.01643877877796647
0.016327720707109136
0.01627901870287562
0.015872745086836216
0.014643995307763866
0.012551412193052478
0.009570006560571316
0.006327179260300148
0.004597747341568937
0.005216111880541538
0.008097187316424963
0.013181934064246349
0.018424616659824405
0.022804627322404056
0.02626046593304735
0.028120326466449908
0.029130031275109988
0.0297186761034922
0.030052596009514508
0.030365649802353272
0.030644999749391014
0.03109288501091579
0.03163966184057664
0.03236856587947086
0.0331260712886674
0.0337118227282068
0.03393241849436413
0.03352579150632193
0.0323747457957954
0.0238506929951211
0.015326640194446801
0.006802587393772503
-0.0017214654069017954
0.011935232450582863
0.018434267493208072
0.022335577126483395
0.030282297436954164
0.03867139936245479
0.04636813399872694
0.05280963011670319
0.05795799716012631
0.061627003454528415
0.06379397930383073
0.0643629866622033
0.06277118896085138
0.05866546320065199
0.05212266038582024
0.043764819948146655
0.034649074832203336
0.025828107273368848
0.018156167951929
0.01248115335077344
0.009474104038636381
0.009092216568963326
0.010885069767777002
0.013951324771542307
0.017173348446535282
0.019842573730286594
0.02150321659852232
0.02194754952884459
0.021269483937502952
0.01988718166775376
0.01830285778423975
0.017066003291527083
0.016377371781784462
0.015939322275653672
0.015787090695363947
0.015513364504516488
0.014537245085482388
0.01261756733456274
0.009666534993908517
0.006329493151701082
0.004384620286051902
0.004765606625821028
0.007539381647324128
0.012813889117634286
0.018456309967521133
0.023239345150006568
0.02696617746954542
0.02877904784105869
0.02950378255723754
0.029816381321314527
0.03000377300818294
0.03031730475338771
0.030715336007984515
0.03130361743617858
0.031954970051582335
0.03272334418225802
0.033436373932428466
0.03395142095519284
0.03408110823762801
0.03360883811364467
0.03246196374634361
0.02391866298341911
0.015375362220494612
0.006832061457570114
-0.001711239305354384
0.01839387267216248
0.02841108011951183
0.035658724835867454
0.04279445147408147
0.04896842427828301
0.0539694681111031
0.057793179221268906
0.060829009149097286
0.06282313981017787
0.06354134259383476
0.06287850498119464
0.060451964476114776
0.056004181453545174
0.04950972436059194
0.04132383744239258
0.03231422614844522
0.023595285201144484
0.016340855320816274
0.0116386758347471
0.009849401020551018
0.010606632595873931
0.013063906270077946
0.0159746811435577
0.01844973534672396
0.020010522024551038
0.020370371645646056
0.01965250735262255
0.018258614555671154
0.0168350619076553
0.016061357477635214
0.016274233963301212
0.016980989990992956
0.017412986670924023
0.017477916949115064
0.016802706519162786
0.015197913955738244
0.012896882141700495
0.009908765368823125
0.006792710686127816
0.00533229892706715
0.006280274793290106
0.009281793916410633
0.013951992343074386
0.018425348222033695
0.02202409803790294
0.0249392620022537
0.026871502984015257
0.028388912225448013
0.029460245929861295
0.03004286388796144
0.03034204785526128
0.03039407480257547
0.03057507217698712
0.030921145423503524
0.031570662187960036
0.03240547930630365
0.033119010201922046
0.03350800735987787
0.03323278745399095
0.032103365630681904
0.023653684438974375
0.015204003247266847
0.006754322055559318
-0.0016953591361482112
0.031657909334615944
0.04481770523794504
0.049350425880392595
0.054002006640117964
0.05771022584986888
0.06027623989116198
0.061969714397731364
0.06337296794880218
0.06408469191663516
0.06366836950908586
0.062012145807575046
0.058879752914911536
0.054104793440016445
0.04759031733946677
0.03949088003133814
0.03054007298485332
0.021929082912580486
0.015123857226875065
0.011225975317791553
0.010359239489802663
0.01196321110667772
0.014869629089646631
0.017727175588708018
0.01977038903975463
0.020567880808513996
0.019894818891426
0.018174480959151158
0.01620138509149226
0.014874340613179415
0.014975878689626196
0.016537301833725152
0.018344219958372026
0.019333695005010667
0.01945935606948401
0.01848080721807028
0.016576352307270822
0.014152457417866537
0.011162650176426593
0.008064867747248376
0.006705477833819562
0.00786601457344017
0.010897748458311223
0.015010960555246278
0.018556374100253733
0.021201076444041945
0.023431964584266867
0.025423016687502336
0.027489116457046485
0.0290662372666935
0.029895462626987553
0.0301554909461876
0.029931841761904145
0.029792811724338612
0.02989478607252434
0.03044155013336277
0.031356677243049
0.03221254588641074
0.032796370489990866
0.03268932210079826
0.031633139778989953
0.023327120205165214
0.015021100631340475
0.0067150810575157364
-0.0015909385163090026
0.019628198840844244
0.024403106622502738
0.021052613277580637
0.02469273692766532
0.03243666782971089
0.041324177337320835
0.04947319739412577
0.056147476789631307
0.06105243956130852
0.0642722880037784
0.0657158253132197
0.06469057696389272
0.06078661066714052
0.05416180681767107
0.04563972022261888
0.03642942062231228
0.02755672977746597
0.01968592703808909
0.013380833613845435
0.009434625484560838
0.008176083690572706
0.009435346157731554
0.012645820078330372
0.016572258281266565
0.02015316118981974
0.02275582427968711
0.023987800608454707
0.023828421331743538
0.02258095546560785
0.02062250776583235
0.01853137706312817
0.016800160883828262
0.015528207619471358
0.015013629913420118
0.014976332419565188
0.014686329471971593
0.013333109290498833
0.010542665546548197
0.0069801702048170634
0.004384649071176925
0.0041027914248392755
0.00654694903102623
0.01211421611489665
0.01858732045755449
0.024201700640042612
0.02846707188278
0.030158289397476185
0.030237016966185123
0.029912087457422906
0.029751713275733723
0.030050430560013948
0.03069857441450644
0.03158523148498636
0.03245668136705756
0.03330388561077584
0.03391369700324017
0.03427003380838729
0.034200684825057795
0.03359740852309277
0.032497952361255626
0.02396592899123016
0.015433905621204697
0.006901882251179232
-0.001630141118846233
0.026282881937744227
0.03816780429233132
0.043801121148029296
0.0494653343096453
0.05418549527864227
0.05773898052382007
0.0602831704948641
0.062331414524853045
0.06354875109593038
0.06358259063764791
0.0623238373261461
0.0594774822677833
0.05483913578865885
0.04833926215159471
0.04021112902638333
0.031240014871658582
0.022582892802198454
0.015586787797217663
0.011366552445205605
0.010135560606760198
0.011407920620710294
0.014143470744979349
0.017013939338058573
0.019213497480776557
0.020303277701422182
0.020042232947688397
0.01873102195249872
0.016988989367318446
0.015608261683895846
0.015337426011025121
0.016340887399747196
0.01770935228465064
0.018486736050562416
0.01859259975111735
0.017728238151394213
0.01592502650387607
0.013539549390163047
0.010556212220200614
0.007471779230935555
0.006100101494889999
0.007197581806760121
0.010229404907867045
0.014570254711787314
0.01848483201386978
0.021510839122991475
0.024018171826109477
0.025989395592780268
0.02784507154691708
0.029230443400576515
0.029968258347901334
0.03024681674250164
0.030133287115148823
0.030121606831242164
0.03032116975056308
0.03090979520631875
0.031794557392972614
0.032595155246975545
0.03310233888346149
0.03292705654299192
0.03183584963833301
0.0234664866565175
0.015097123674701986
0.006727760692886473
-0.0016416022889290394
0.013987650456546243
0.01973942756664674
0.02106608330207731
0.027754639971197124
0.036241607459622814
0.04448647904097936
0.051574321116460535
0.05727658034020288
0.06139002825323033
0.06393657627664572
0.0648225610605939
0.06343856948607744
0.05940988591515792
0.05284197562204063
0.04442872128028976
0.035280472636326984
0.02643872370992734
0.018685488051918855
0.01277280469299229
0.009434024972452713
0.008741284695817253
0.010345397449953444
0.013463042197267358
0.016921670654458838
0.01990840736707594
0.021908541465823595
0.022640896623766414
0.02214818032854886
0.02080392158855909
0.019063983754443008
0.01749881822046081
0.01643936584722805
0.01572645882925547
0.015468428790969706
0.015287656784003668
0.01453338912037438
0.012783177221584863
0.009873915327130754
0.006457743706201712
0.004310816893308582
0.004478886662016089
0.00714944454324427
0.012549559854984097
0.01849371082576893
0.023579698496832335
0.02750621415633745
0.029278890061159756
0.029777895162143297
0.029869501757819862
0.029937719481494953
0.030248438395093894
0.030736652028360612
0.031432113354826346
0.03216285583737139
0.03296032534249438
0.03363764142836201
0.03409703306467906
0.03415617509608069
0.03363548733475989
0.03249942654693095
0.02395164862405935
0.015403870701187747
0.006856092778316145
-0.0016916851445554562
0.02681964684457388
0.038831018193701994
0.04435266335310831
0.04991593713776001
0.0545361067448416
0.05799159447482982
0.06045068715025109
0.06243401933507804
0.0636004082324343
0.06358905824807416
0.06229060684957517
0.059415902580959
0.05476425881653793
0.04826332956076583
0.04013842462306087
0.03116954076739612
0.02251684399785884
0.015539162752013518
0.011351107312271088
0.010156760207528195
0.011462662957958867
0.014215784938105241
0.017084457963511813
0.01926744727619937
0.020327261820177266
0.020024999148879116
0.018673426436417454
0.016908228072177203
0.015531928743826522
0.01529699139497669
0.016355082258398455
0.017767449947734573
0.01856661055721735
0.018674580689352262