# vtk DataFile Version 3.0
vtk output
ASCII
DATASET POLYDATA
POINTS 5568 float
0.0 0.0 0.0
0.33544691492458245 0.019408541462382606 0.9418591592089992
0.6692210844489951 0.014775346123904687 1.8845008394137546
0.9797996673089087 -0.004413071254629308 2.834854851615121
1.2519869179607195 -0.035663918661065636 3.796591554210477
1.4730849557738 -0.07681399704861 4.770974604516621
1.6324731498809344 -0.12513329559112343 5.757007387423774
1.7221105113393897 -0.17614112854313094 6.751674841605475
1.7361382652105521 -0.2250225125647818 7.7503809206985474
1.672204361610548 -0.26706464556520515 8.7474490803663
1.5315522857494628 -0.2981875004459775 9.737018866414783
1.3172561517364465 -0.3157640727297245 10.713629449530606
1.033541544927983 -0.31870482320524507 11.672533706414555
0.6854901768455404 -0.30710259609971036 12.609937372666256
0.27852404814031545 -0.28190210137129945 13.523032934561135
-0.18025986024200413 -0.24464748449948112 14.410799468584116
-0.6816395886611529 -0.19762106360342205 15.274747895093505
-1.2154709382005606 -0.14332472617296368 16.118593851409333
-1.7720265448492607 -0.08396961998548966 16.947281264175672
-2.3428828390429097 -0.021543144804890807 17.7659545974265
-2.9210289049595293 0.04155169513118276 18.579444712694396
-3.5008690378185894 0.10221830188477651 19.391913163251704
-4.078120376142431 0.1571296469541508 20.20663129646466
-4.649567654810773 0.20322423994863917 21.025974506724694
-5.212802923925966 0.23818399076853528 21.851531196145444
-5.76579346384192 0.2608087719620436 22.68441148888829
-6.3064760159305315 0.27131919816548444 23.52557253696884
-6.832819867265319 0.2717630980961812 24.37584423067322
-7.343297584171989 0.26524232996991604 25.235710487788126
-7.836648417348105 0.25447707263759145 26.105474285976463
-8.312372475859663 0.24250227725305745 26.984987346953268
-8.771404887353453 0.23226589577932888 27.873347894080684
-9.215332967784834 0.22635251810429105 28.76939080118334
-9.64640727786566 0.22757237778195438 29.671706406241075
-10.066612482114186 0.23944782190358233 30.57905780462506
-10.478287412929246 0.2660836547834973 31.48999923180093
-10.884791661983616 0.30881737292429456 32.40264819215459
-11.288444340076113 0.366985192313926 33.31570953744099
-11.691292558823465 0.43889405853165075 34.22814716687731
-12.094872872520249 0.5215489826182081 35.13935026933068
-12.499557330139446 0.6107604524252956 36.04944466191659
-12.904535784032099 0.7025374981638188 36.95915309089712
-13.309112024227275 0.7942436382903164 37.86904761760482
-13.712538359270924 0.8831213367994847 38.7797330445778
-14.114011353289962 0.9659997375033637 39.69184630825187
-14.511511931124701 1.0377456280393813 40.60663908140448
-14.903291767317215 1.0887221385215522 41.52528479947649
-15.286429464886332 1.113052198388834 42.4486555553965
-15.65779084208804 1.109050950222504 43.37713534383347
-16.014595894923445 1.0766440030337914 44.31075193754046
-16.35325255240985 1.0189262281631155 45.24989001407879
-16.669469534571725 0.940561353708748 46.195334759499794
-16.95871720874538 0.8476648613916177 47.148070832449854
-17.2179565358063 0.7470094668938876 48.10862455966323
-17.44644350391207 0.6439447082621984 49.07670067285579
-17.644289548985096 0.5417097137416725 50.051587819321654
-17.811301512419274 0.4431285396031651 51.03260196609801
-17.947223091384217 0.35161036355094955 52.01908549248036
-18.05227796399869 0.2713862194065701 53.01031077486386
-18.12793638754219 0.20569290225145961 54.00527820700829
-18.176073511506964 0.15694820065019582 55.002928832910065
-18.198635297191817 0.1268685705902905 56.00222167371408
-18.197681880974475 0.11625552978401404 57.00216489928359
-18.176222619754576 0.12509818052539368 58.00189551681802
0.0 0.0 0.0
0.02506712667554878 -0.06980526959936892 0.9972456384945443
0.05692436786070565 -0.1473976313463711 1.993721700215343
0.08982026049399061 -0.22879738657141796 2.989860214728843
0.11556811984791548 -0.30788199051087994 3.986395549354981
0.12703972036059819 -0.37922341938716664 4.983781534271336
0.11702386508607077 -0.438076933313374 5.981997916896695
0.07819589036331165 -0.4829227942036778 6.980236985026137
0.002616898424697922 -0.5140905706359783 7.976889575295088
-0.1171159514635669 -0.5325904331044868 8.969523344490092
-0.2866454366277571 -0.5388554731069506 9.955028546370695
-0.510393463514571 -0.5319621248485834 10.929651192431233
-0.7909463852153125 -0.5103390483199095 11.889246159428566
-1.128761456016583 -0.4732817613740504 12.829728873476913
-1.5211971880637771 -0.4218573478666964 13.748069619555409
-1.9626178289948895 -0.3592496177565927 14.643183070404199
-2.4455797594377064 -0.2896750280964101 15.516055999424548
-2.961904923706703 -0.2172902248397369 16.36938405181711
-3.5036274645052434 -0.1455644015705554 17.206875601068287
-4.063700829293474 -0.07732355811930938 18.0325032491881
-4.636242363401191 -0.014759913560445342 18.849988406301726
-5.216298626189754 0.040847526307344645 19.662664568515876
-5.799444997740356 0.08870168531625636 20.473620972284237
-6.381399778908276 0.12827100937567584 21.285878875458643
-6.957705159219839 0.15933623894081786 22.102522653452457
-7.523692648997608 0.1820094827995727 22.926624640725866
-8.075007287083695 0.19679517076258432 23.760791022968323
-8.608269084071976 0.2044800396797977 24.60670638437427
-9.121856651500527 0.20625960057543577 25.464741723824716
-9.616407219453196 0.20377987845077253 26.333887043501395
-10.093650960897163 0.1989386776352645 27.21264467449371
-10.55524193201213 0.1940203673588183 28.099723918760628
-11.002535670468387 0.19179110972728866 28.99410825558023
-11.436693945476051 0.19558656097751068 29.89493686680002
-11.859221292078024 0.20939035909012335 30.801181920045092
-12.272575258870381 0.23584822045431134 31.711367878906827
-12.680033018751498 0.2760470712538934 32.62370675580896
-13.083232844364977 0.33112807726941773 33.537159536964936
-13.482703253076828 0.40134804023203974 34.45121235237831
-13.87864560437448 0.4843371641060339 35.36572996279788
-14.271676113254744 0.5756173292092528 36.28071354218499
-14.662317893746382 0.6709534235530635 37.19630626192974
-15.050539241471077 0.7668224865785276 38.112872303153964
-15.436311926239844 0.8574852794248077 39.03100066764316
-15.820154530279545 0.9363811805343095 39.9510225652696
-16.201866237000278 0.9984456661778845 40.8732178659376
-16.580141132213118 1.0382703114036391 41.79805412240918
-16.953666080408066 1.0532331886569921 42.72555357005336
-17.32048612182128 1.0428808465949273 43.65578788797086
-17.677228678803885 1.0070115550719334 44.58930175608592
-18.019470737897567 0.9468618343392906 45.526986342758384
-18.34181477075997 0.865890710600988 46.470139565516256
-18.640290157274013 0.7699844312524223 47.41972601720289
-18.911797360210134 0.6643301912998113 48.37634559693866
-19.154031457366063 0.5545391638523995 49.340331370934884
-19.365933722724893 0.44591018707324626 50.31156624229181
-19.54704907895936 0.34252931914847795 51.28957934234885
-19.696945581346398 0.24772686226951865 52.27372543553921
-19.815039205769867 0.16459644307877322 53.263242100015205
-19.9015086323725 0.09574364780498604 54.25711449164604
-19.95722522715104 0.04334267758228291 55.25418510067331
-19.9836706000647 0.009050048259632348 56.25324698955988
-19.98308624090958 -0.006137591042709001 57.25313147995704
-19.958912566689154 -0.0020452030917327 58.25283087769395
0.0 0.0 0.0
0.0629072694867665 -0.059371429475710474 0.9962518300147459
0.13149262712490783 -0.12854954453477824 1.9914957383681315
0.1982191374268223 -0.20277406182115035 2.9865024186756224
0.25395489389092285 -0.2763173866702754 3.9822357689363788
0.2908039840533765 -0.3441336164449065 4.979252871865588
0.301110090697552 -0.4017330830505513 5.977539446759082
0.2775734515907291 -0.4472480224347219 6.976225792371363
0.21262327975992001 -0.48040412381483816 7.973563322057486
0.09952275073745198 -0.5015461424340768 8.966921910576025
-0.06655439355090731 -0.510587337927761 9.952993225912328
-0.2891809195923222 -0.5064074318591086 10.927888070645846
-0.5701709227597298 -0.48749033077668613 11.88741230765428
-0.9093387418492922 -0.45322601451449596 12.82751397615887
-1.3037031290534327 -0.4046716483066657 13.745184507246831
-1.7474419564240442 -0.3448288094769423 14.639340359279661
-2.232888890618268 -0.27770364676149156 15.511025787981927
-2.751619841871333 -0.20727399769078758 16.36305739816072
-3.2954477255030685 -0.13687027720111256 17.199295730889997
-3.8571555773248454 -0.06922273876788632 18.023861131416655
-4.430730217376402 -0.006544959142003676 18.84061300820109
-5.011146830484668 0.04968500651764285 19.652988996392423
-5.593987983018311 0.09838906905754213 20.464114205719174
-6.175077588688335 0.13874104833249845 21.276952804674004
-6.750187056107691 0.17025684993036344 22.094421981300417
-7.314973004311225 0.1928612693075814 22.91934977992067
-7.865377007949341 0.20700290405391153 23.754128461336187
-8.398180080337813 0.21363250483856983 24.60034175267995
-8.91175178691267 0.21420801326019173 25.458388238015004
-9.40648028551396 0.21052673176630476 26.32742803045162
-9.883828862565538 0.2046250797737456 27.20612223578735
-10.345373649201502 0.19886349717546126 28.09322043446387
-10.792500492714092 0.1959904134468835 28.987686381943345
-11.226502012801667 0.19928756719793939 29.88859248656181
-11.648942767895509 0.21268898206896508 30.794883946587333
-12.062265170609573 0.239006919166038 31.7050882959516
-12.469755827143977 0.27935436752518583 32.617405920602174
-12.873139807691672 0.3346579261640118 33.53076394494935
-13.273137118847616 0.40491670475731 34.44458332267046
-13.670123893884963 0.487658597155995 35.35867045182595
-14.064709358390886 0.5784433599908304 36.27303385771973
-14.457272038016193 0.6730809095375685 37.18787716494845
-14.847706906095285 0.7681643570867481 38.103584406259905
-15.23586182362716 0.8583566427644519 39.0207545712784
-15.622041736409809 0.9375711292342374 39.93977042538349
-16.005810974399324 1.0007067593073566 40.861038607938504
[...]
CELL_DATA 87
SCALARS quad_param_group int 1
LOOKUP_TABLE default
3
3
3
3
0
1
2
3
1
0
0
0
1
0
0
0
1
1
1
3
2
0
1
2
2
0
0
2
2
1
2
3
3
2
0
0
1
1
1
2
0
3
3
2
3
0
0
3
3
3
2
1
3
2
2
2
2
2
2
2
1
1
0
1
3
3
3
2
3
2
3
3
0
0
3
1
1
3
1
1
0
0
0
1
2
1
1
SCALARS single_component_feature float 1
LOOKUP_TABLE default
-0.03684395760048833
0.021100858670360934
0.014190112310523528
-0.007909592456132382
0.008343095200440296
0.005693632132845287
-0.01133584175497968
-0.02538297661268525
0.005182263848122939
-0.03292207890896458
0.003662952296473645
0.021400502120535896
0.006896820469264951
-0.046689826081245514
0.02271175156574615
0.030447681686140586
0.030351261725405393
-0.017807940718457628
-0.009271470679804241
-0.009213294898173824
0.04368896590463013
-0.00473226692513376
-0.01683556457754954
-0.002373912375067011
0.0031055217333761653
0.03778531991932029
0.014750021926541124
-0.013718025596770198
-0.01337976383288892
0.006441437276221089
-0.011103559610212158
0.003523110398785969
0.008848589236423905
-0.006978101595868885
-0.040351425121785085
0.026201181895921632
-0.019168696495716633
-0.04896776387682471
-0.005848141122379587
0.05044631485911356
0.0661290146163765
-0.02550219283527349
-0.009779724486651098
0.00316100927279947
-0.011526747785954805
-0.05147770089103732
-0.03790976107251999
0.008631940615065531
0.04141067498392469
-0.0053259616001704105
-0.01942357492820519
-0.02030284804758449
-0.005112779700903077
0.016282398364048038
-0.01200982564630695
0.05479564128325946
0.001646977192165916
0.013555005864260485
-0.021439220645309363
-0.028376421269101167
-0.024896059178670472
-0.007716059919027714
-0.04322849614171444
-0.01206496527683245
-0.005071925067583829
0.07117767423754348
0.03136975563604112
0.006884227959094574
-0.02025622914851876
-0.059443516390881114
0.03153884456427948
0.018427831139509118
-0.02317143341458189
0.04138243859545976
0.04198155665296842
0.0671211708567326
2.486262179676735e-06
0.0064847310819564075
-0.04125452505987843
0.03397692432410942
0.04343905299381344
-0.010815604523443344
0.023978663890209986
-0.053790052677880236
-0.03762554742511538
-0.01435488143153596
-0.005439160156182226
POINT_DATA 5568
SCALARS single_curvature float 1
LOOKUP_TABLE default
0.023587825378241684
0.03695906245001661
0.04670823347964243
0.05714108427968373
0.0655795032258223
0.07172125563933189
0.07535601557080016
0.07675951596788747
0.07610808829514674
0.0738995219815644
0.07075062768968043
0.06651065064430606
0.06070528384110197
0.05310957026771661
0.04379293866637097
0.033515425261592756
0.023327119287112136
0.014400310802613277
0.009131475692684693
0.007581233177009331
0.009130322936905374
0.012753655432794008
0.01586598478503688
0.017920792111390887
0.019080202238650625
0.01973074211316184
0.01998738723318879
0.01979361583326471
0.019214419503417606
0.018152781065964445
0.017116446108553077
0.016729251394486905
0.01660565464774453
0.016535168988089148
0.01597193721490288
0.014327334108561202
0.011764602070360921
0.00849264045026614
0.005160409848784372
0.0032386189050867846
0.003170661517544691
0.005547779560767151
0.010906042485540482
0.017217689119742578
0.023372944725349336
0.02842078647556956
0.03085444121172043
0.03153607563617194
0.03163270899931821
0.031542081162602785
0.03157205635977841
0.0316372432250624
0.03167661039824629
0.031772081593080634
0.0321360037726959
0.03253662435012269
0.03273236450217515
0.032571666908111994
0.031904078252725974
0.030721428216325487
0.022620142244931384
0.01451885627353728
0.006417570302143176
-0.0016837156692509278
0.005461234245417801
0.009526667880532491
0.0131523188331252
0.02016826996061919
0.02809220223657973
0.03554354196010928
0.04225552723668326
0.04843982664284125
0.05375364822821897
0.057786227095422915
0.05999914369334498
0.0596285184759332
0.0564068126021335
0.05054421402043428
0.04288557218105536
0.03459648404485762
0.026683317922964626
0.019824956181196632
0.014473409408679814
0.011059947707376734
0.009853869324896944
0.010837484842670025
0.013572119209728058
0.017123170620151184
0.02030633244622916
0.0221055943264264
0.022224180789502383
0.020986920051759228
0.019095121648887027
0.017439268018896913
0.016523340035023943
0.01612124637352112
0.01582829263284908
0.01575240785255764
0.015585197688485554
0.014869725170006166
0.013293388989720146
0.010600640382873516
0.007365920245041045
0.005542556308161784
0.00636091720717413
0.00945008972753817
0.014447896221116596
0.019318353076892354
0.022880488598957676
0.025509881286279235
0.026990599345902432
0.02795555148953478
0.028592679053801924
0.02906603979422915
0.029535768045597946
0.030008362376063587
0.030776465985296354
0.03163182240872552
0.0325885462954724
0.03352775252987114
0.0342928332677773
0.03467358887697519
0.034376568306128945
0.03325239821661706
0.024505286290741033
0.015758174364865006
0.007011062438988979
-0.001736049486887048
0.006948675794627328
0.01189238734225192
0.016164132650596998
0.02379828115022985
0.03184041183266461
0.0393293171581295
0.04590235694450621
0.051684080949876816
0.056387188131554376
0.05973168764767377
0.06133439676134587
0.060513691553281755
0.05698139732008609
0.05089757350692003
0.04301706664928644
0.0344574271585522
0.02624833329577877
0.01914765361922613
0.013738028250712124
0.010532276820769742
0.009677131771739629
0.010970453709814615
0.013812970944734115
0.0172090330917835
0.02014433542640327
0.02181410088772783
0.021970800294127846
0.020873220024464918
0.01914147519766598
0.017552700407787097
0.016619623058791597
0.01621674386053266
0.01593998074066104
0.01585891985910433
0.015626425432501284
0.014765698994708367
0.013030795874510845
0.010239630273804796
0.00698962978260426
0.00517661457912998
0.005903436130031257
0.008912119030717876
0.013968896978652206
0.0190153702403646
0.022902930429827655
0.025845467108414497
0.027445576566474006
0.02839196634152213
0.028981932817808292
0.029391639324098835
0.029810924889097458
0.03023664049056019
0.03091920684088627
0.031689211054959185
0.032577571882884536
0.033451422837072725
0.03414881275408874
0.03446550618864551
0.03412381780690979
0.03299034937067936
0.024310031673447214
0.01562971397621507
0.006949396278982927
-0.0017309214182492164
0.013867626866921804
0.022345896982613953
0.028940725249379514
0.037777604009621074
0.04591989068702595
0.05288831923443608
0.05834014631440226
0.06238014682504661
0.06488562666563517
0.0659076499603866
0.06549901937004826
0.06321509374882602
0.058692092529683215
0.051925615038556805
0.04337608044359767
0.03400354707634163
0.024879434492565924
0.016997475218284142
0.011505175919453993
0.009013269807644777
0.009257351648034338
0.011554691682116414
0.014656776982153463
0.017501877427053822
0.01965366615752628
0.0208936820305919
0.02113210923184574
0.020455863457899324
0.019232848905914222
0.01786691649400371
0.016883676438571377
0.016482519181966526
0.016264703408730836
0.016178120259835505
0.015769971110105325
0.014505504751617914
0.01233353892784566
0.009274541015760937
0.005980227362866551
0.004159950166621574
0.004569040179144977
0.007315139346072418
0.012532647800162373
0.018137281918896717
0.023041015066679705
0.026944855737745445
0.028918155646887402
0.029777048415445238
0.0301840318695246
0.030382948900359075
0.030636960510923066
0.030909253999999945
0.03131462232638644
0.03180070757638394
0.032464791999686535
0.03313016958132618
0.0336090757278443
0.03371837089095595
0.03323358815650035
0.032074448878025935
0.023627747365928348
0.01518104585383076
0.006734344341733173
-0.0017123571703644147
0.008598696027437116
0.014405343801268488
0.019266645161337553
0.0272554115435852
0.03533897974810911
0.0427512424081942
0.049100474189178504
0.05447387026475036
0.058626046794563805
0.061372510646560956
0.06245145766064937
0.0612469269013149
0.05745198268004599
0.05118373254428059
0.04311997733138947
0.034337031350763735
0.02588073484735942
0.018574502885161312
0.013126154402952584
0.010103367315458873
0.009543211772154619
0.011100371342525815
0.014026362909310976
0.017284003444937013
0.02001047117823341
0.02156869280990572
0.021752902367043993
0.02077071239445219
0.01917423438483647
0.017643267306327783
0.016696193906775545
0.01629311220943852
0.016030871167073364
0.015946741762350978
0.015662885563472756
0.014686236977560992
0.012825043862841811
0.009955713200506523
0.006693185981485876
0.004884184025319848
0.005530675219249328
0.008470754149332491
0.013574253998088958
0.01876929041322272
0.022929659021784784
0.026132809518351348
0.027833054695599494
0.028760447412197812
0.029306735181210176
0.029661699357100887
0.030037823667906628
0.030423443384144513
0.031033140031626872
0.031729570271562535
0.0325593438683728
0.03337786055716678
0.034017637331162184
0.03427973036909677
0.03390014822464237
0.03275927400023173
0.02413787526012295
0.015516476520014172
0.006895077779905393
-0.0017263209602033855
0.009408816625410332
0.015630189396279394
0.020766859947480277
0.02889918504338485
0.03699453954937676
0.044351340185843656
0.0505762917651781
0.055749118875032234
0.05964319126833086
0.062114400198230876
0.06295390775802834
0.06157461293914753
0.0576607427138061
0.05130979462383647
0.04316442258758586
0.03428211244772572
0.025714870327461965
0.018315272541908054
0.012852952390983366
0.009914848779880378
0.0094875888561954
0.011164782609998886
0.014125651413346402
0.017318609245376287
0.019950765230379995
0.021457894513626986
0.0216531599986158
0.020722369295813815
0.019187080014953086
0.017682602324752553
0.01672935109423898
0.016326326020956235
0.016070917304739883
0.015985785420607072
0.015679818992892062
0.01465277298812094
0.012736806000042608
0.009833691074745333
0.006565646623290003
0.004757047626770541
0.005366264128267188
0.008275083503446183
0.013398776133349714
0.018660968213270228
0.022944099619327956
0.026263938592771513
0.02800925785795444
0.028927053102436956
0.029452417479578073
0.029782321612557037
0.03013874871953535
0.03050607596623401
0.031082623067492543
0.031745327288989315
0.032548352612050975
0.0333418124196663
0.03395541025893358
0.03419267129521429
0.03379590815888276
0.03265182071229562
0.0240578254711306
0.01546383022996558
0.006869834988800557
-0.001724160252364465
0.015030361049821892
0.02409428660746849
0.031062792737955196
0.0400783257986063
0.04823594359720417
0.055094666697380404
0.060331317774924634
0.06406761946891715
0.06621028651840075
0.06685901586224732
0.06613147779682116
0.0636179675557036
0.05894205638822061
0.0520734155579024
0.0434262259313867
0.03393600049576736
0.024675716451054774
0.01667132312297834
0.011184020506703023
0.008806047055716724
0.009215334651690223
0.011669670120787281
0.014795281807196643
0.017549420384312946
0.019581406829383127
0.020753004659719625
0.020998763394077222
0.02038401359677872
0.019238948785770225
0.017908492666589775
0.01691818077216667
0.0165179368598965
0.016310260335117323
0.016224258913873028
0.015793344788067435
0.01447481994482032
0.012245311927840303
0.009152090236793498
0.005851814157062571
0.004024986677166455
0.004381310866097766
0.007085663291459093
0.012324145108340383
0.018014232711891953
0.023071412006271663
0.02711805339627574
0.029147751558305093
0.029989295894775576
0.030363615988198107
0.0305289708231734
0.030756868358370826
0.031004956460172078
0.031367024003818515
0.03180779722601874
0.032436550439491826
0.033069912401988054
0.033514921666734594
0.0335919618602571
0.033085129983892375
0.031922591407483214
0.02351464211997972
0.015106692832476225
0.00669874354497273
-0.0017092057425307644
0.01980429242763938
0.03126956271048845
0.03977515005751044
0.04954871039873617
0.05781556045844105
0.06424141016332842
0.06857897649854526
0.07103526371499014
0.07165423230925513
0.07074438454589314
0.06869283136137742
0.0652319494189159
0.05993193656696965
0.05265546720136346
0.043626635397352335
0.03368195562625785
0.023887715129069974
0.015377018400179352
0.009970357234597816
0.008056218150436372
0.009117635848232653
0.012217127486824101
0.015377807676914131
0.017750004863539053
0.019296886523039063
0.0201838811459653
0.020445086814806345
0.02007052102920837
0.0192407209149857
0.018057522029471147
0.017040381185700205
0.016645907633111044
0.016482654245498427
0.016402829426332293
0.01589096631219364
0.014375823605135748
0.01194143078339815
0.00873206888415291
0.005410891141279852
0.0035419653075662344
0.0036716214460006404
0.006200019613984247
0.011512879220488234
0.017548834824016032
0.023221087281548005
0.027833232643315317
0.030089115778777525
0.030849199347251204
0.031077976801412055
0.031103603259211358
0.03122322584206779
0.03137111426594185
0.03155536272279535
0.03180748501931692
0.032290567468005946
0.03279431681451249
0.03310114157956639
0.033046500179172995
0.032450234907907514
0.03127546917474698
0.02303270437605956
0.014789939577372138
0.006547174778684717
-0.0016955900200027046
0.009568370912751735
0.015871106710556995
0.021061378702450298
0.029220832069982706
0.03731818472331324
0.04466315899645088
0.05086279436831557
0.05599596375320072
0.059839678524179186
0.06225747398272519
0.06305062242731439
0.06163753918669335
0.05770072355066017
0.051333878271686784
0.04317285827771982
0.034271506768156754
0.025682933686510374
0.018265296932814163
0.012800556238029956
0.009878907158780223
0.009477232613096364
0.011177625924408364
0.014144988501876059
0.01732533170215352
0.01993930978424227
0.02143654034400222
0.02163383925724613
0.020712903390896244
0.01918941397895306
0.017690069113494907
0.016735637668468698
0.016332634543999934
0.016078562740943284
0.01599326489408454
0.01568311428740813
0.014646495292865047
0.01272013589670244
0.009810621971115286
0.006541525592680158
0.004732903294270181
0.005334862320825881
0.008237634689273621
0.013365153642740244
0.01864029335623057
0.022947053700985622
0.02628930971082691
0.028043305592755568
0.028959177637074875
0.02948042282155934
0.029805472414978714
0.030158088041227535
0.030521876097854766
0.031092016602983445
0.03174818460995424
0.032546033958060654
0.03333465998593478
0.03394320114510296
0.03417566412623046
0.033775585055010535
0.03263088780558552
0.024042231386642972
0.015453574967700424
0.006864918548757877
-0.0017237378701846703
0.022311973568218953
0.03503973744576818
0.04436552570587857
0.05456797256370615
0.06293750490320252
0.06916645286489334
0.0730354748757488
0.0747979834979691
0.07458296928177488
0.07282110100411174
0.07004924758168259
0.06607641520916989
0.06044355968978787
0.05295570564928122
0.043735085476105426
0.03356727469606376
0.023508389628870165
0.014723837183968556
0.00940095698047091
0.007728445357227793
0.009116494524012374
0.01256141833134777
0.015697920759124503
0.017861578374309055
0.019152659057797124
0.01988449927251266
0.02014442557567343
0.019890388472507278
0.019226215042642353
0.01812289326628327
0.017092846590801413
0.016702890196336254
0.01656537803477856
0.016491277811114
0.015944141490493148
0.01434061099639879
0.011817745335305257
0.008563721884914942
0.0052343995674258
0.003332611983273453
0.0033335741740617175
0.005763376617651041
0.011107894863050381
0.01732594275558673
0.02331797730214681
0.02821946059336652
0.030593023273296868
0.03130268793463708
0.03144585849097621
0.031395219362855414
0.03145599366929041
0.031549561686771505
0.03163844494238678
0.0317877441837311
0.03219242352571334
0.03262802079437926
0.03286155264347378
0.03273695421781554
0.03209356916722659
0.030913401968178635
0.02276308858744644
0.014612775206714244
0.006462461825982049
-0.0016878515547501458
0.010047626365146457
0.01659429949121364
0.021944581677858076
0.030183891153964495
0.03828680780105466
0.04559480153484878
0.05171695247312955
0.05673063848318921
0.06042376270370575
0.0626823329296696
0.0633374734512656
0.06182389538122471
0.05781892493009471
0.05140497205173329
0.04319766366274637
0.03424000587147348
0.025588220761932484
0.018116951063135482
0.01264556562184538
0.009772996083786284
0.009447204510353012
0.011216583815307216
0.014202759371620745
0.01734538519458828
0.019905405435704827
0.021373156432637326
0.021576305781843594
0.02068452213687639
0.019196069231496953
0.01771201177416656
0.0167540973854811
0.016351180863043907
0.016101116015960888
0.016015377281904997
0.015692953880523983
0.014628188248585089
0.012671298087091123
0.009743008899146395
0.0064708133525661115
0.004661929378176835
0.0052422049432765605
0.008126983686996216
0.013265734552904702
0.01857931370519162
0.022956148809037027
0.02636480343524185
0.02814453269426658
0.029054555876801707
0.029563408864174745
0.02987400193922808
0.030215275017072614
0.030568531787197494
0.0311196225747043
0.03175632086018886
0.032538767634389086
0.03331303794375471
0.033906549127662854
0.03412474792853993
0.03371481810999253
0.032568329033614764
0.02399562856320931
0.015422928092803857
0.006850227622398404
-0.0017224728480070492
0.0054148739641423
0.009447038690034722
0.01304645354768821
0.020026658723473287
0.027942070358869708
0.03538734472543666
0.042101377295436886
0.04830069435336143
0.053639825219111925
0.05770173070759999
0.059940875614268196
0.05958967177819935
0.056381432260884504
0.05052850167151803
0.04287960317160394
0.034602397809575906
0.026702147361373312
0.019854282147500225
0.014505523099483185
0.011083295757271216
0.009861959326535864
0.010832203707555213
0.013561979625635892
0.01711952146642759
0.020313451091628045
0.02211826614109189
0.02223506119187206
0.02099166693521551
0.019092929124609897
0.017434199316857416
0.01651902900556306
0.016116982048324253
0.015823349851634246
0.015747728064014737
0.015583461171401025
0.01487448670339509
0.013305247710403055
0.010616906980242896
0.007382857833009728
0.0055589064082168915
0.006381153061168607
0.009473802047989099
0.014468961569151556
0.019331780491283642
0.022879740298883018
0.025495437924600142
0.02697095672317763
0.0279366181421451
0.02857568060063823
0.029051774634657662
0.02952367553989423
0.029998289409141825
0.030770085767795094
0.03162910182693917
0.032588766276161744
0.03353080283487192
0.03429880624044868
0.03468232560352642
0.034387237212593146
0.03326348337779665
0.02451354653082409
0.01576360968385153
0.0070136728368789675
-0.0017362640100935939
0.009037279380449657
0.015068827973637774
0.020079934942799228
0.028147778183514025
0.036238113416112536
0.04362137355195355
0.049904252773160906
0.05516921394482469
0.05918109338342725
0.061777615285164796
0.06272601600841853
0.06142614847106583
0.057566277011124684
0.05125281536462271
0.04314439539676627
0.034307063058359843
0.025790116645983203
0.018432938160077572
0.012976669719777092
0.009999987186470669
0.009512443552231983
0.011135091796465046
0.014080372541022306
0.017302846885278257
0.01997780571868273
0.021508178055327228
0.021698531066423315
0.0207444689362932
0.01918140261208698
0.017664873507453153
0.016714414770841148
0.016311352193265623
0.016052821156691748
0.015968114822550592
0.015672099500732024
0.014667774552436001
0.012776489320757138
0.009888586630669837
0.006623034065480892
0.00481436099796656
0.0054405727832063195
0.008363602326191497
0.013478201236544925
0.018709910797037037
0.02293736200385225
0.02620432179562132
0.02792919629322851
0.028851426276325084
0.029386379581321412
0.029727683328189022
0.030093065992611624
0.03046870962513818
0.03106032006467366
0.03173836920257009
0.03255355617386527
0.033358392603046565
0.03398388345471386
0.034232427267364106
0.03384346648443302
0.03270082710145399
0.024094333509767377
0.01548783991808076
0.006881346326394144
-0.0017251472652924718
0.02667728995254369
0.041611886370424796
0.05240945370912521
0.06344517404685246
0.07211010564271335
0.07808961496350543
0.08117584451772836
0.08169156207486987
0.07994098211263911
0.07660245677166405
0.07250078630839964
0.06758796191406007
0.061351496393244664
0.05349137392502413
0.04394536995868786
0.03341327386051895
0.022932452058511747
0.01365828659187571
0.008552422492007517
0.007295453039653234
0.00921402561739039
0.013271634433348499
0.01629155925327223
0.018073324643401664
0.01890671442152617
0.019351542797830388
0.01959211611313435
0.019542034600685314
0.019172140275806184
0.018215282759155387
0.017164466510929823
0.016785489826098163
0.01669840523309716