# vtk DataFile Version 3.0
vtk output
ASCII
DATASET POLYDATA
POINTS 5568 float
0.0 0.0 0.0
0.17430512223641081 -0.005893973165203126 0.9846740503549781
0.3507121284552892 -0.02060087736478311 1.9688814853633492
0.5172191467373624 -0.04005690137746254 2.954729788091731
0.6614894449541693 -0.06294936085277791 3.944003267141687
0.7727297764942038 -0.0873071283550646 4.937498253440645
0.841709151349022 -0.11000153713762106 5.93485817325628
0.8619609848542784 -0.12889046846166097 6.934474635462216
0.8279870459804528 -0.14250939047865396 7.93380455918135
0.7356421000092006 -0.14966975178152164 8.929505889992743
0.5826609356979231 -0.1490868979426988 9.917734822805059
0.36804110513529875 -0.13925586132140855 10.894383008718606
0.09227525907174439 -0.1189523389276902 11.855393396343661
-0.24308409577007556 -0.08805016278094246 12.796976721721439
-0.6350448361502053 -0.047606892838602644 13.716069274143138
-1.0782717133481778 0.00022064516338859974 14.611201924613447
-1.5652832531985756 0.0526270496751563 15.483023769269046
-2.087305730772264 0.10690116434892316 16.33422694911755
-2.635354340241328 0.16100545503797026 17.16892177202474
-3.201312443343908 0.21354870885099397 17.991679714563897
-3.7783335507688935 0.26337009014898116 18.806887952716338
-4.360658937224437 0.3093537266761236 19.618542219914595
-4.943322416490821 0.350394842703389 20.43021881605645
-5.521903569532791 0.3854153412974212 21.245091452744447
-6.0924450645652195 0.41351040324227833 22.065879531325315
-6.651391122517236 0.43431179009982324 22.894822597286243
-7.195530680020781 0.4479951147837528 23.73370572894729
-7.722137899940064 0.45503051194618893 24.583785336463933
-8.22978805472489 0.45643969823764435 25.445347484275068
-8.71879855656056 0.4536438697835225 26.317620900376742
-9.190527191004298 0.4487454501851437 27.199351075051105
-9.646857976585403 0.4443072505274677 28.089150218967713
-10.089711435835229 0.44318405173956477 28.985743522564693
-10.521324974888739 0.4488871041980301 29.887784113723626
-10.943752377654212 0.4654360058050015 30.794029788608984
-11.359332759418841 0.4954997132283021 31.70308925849439
-11.770725696260717 0.5394373040184688 32.61348770952129
-12.178817850258435 0.5976259122623577 33.524572162092035
-12.583695363185782 0.6698113327025792 34.43608928458708
-12.985339506430154 0.7539358913587287 35.348013097648455
-13.38403277992124 0.8459359816090977 36.2604711279528
-13.779949987433692 0.9414609404758465 37.17377531990039
-14.17310229580721 1.0368385100294715 38.08828851370714
-14.563670256125208 1.12664691840809 39.004471420204275
-14.952275221119088 1.2048164686138383 39.92255404317605
-15.338956764001196 1.2665789562141545 40.842696847049304
-15.722984557940034 1.306136144821112 41.76517063112774
-16.10307269889748 1.320256011614385 42.690013122833896
-16.4768444155897 1.30819559928706 43.617455439237155
-16.840432557690846 1.2696279003360544 44.54821652325445
-17.188804891893092 1.2063060793220504 45.48343150588997
-17.515856154716435 1.1224695944321068 46.42471197168481
-17.81673913362226 1.025060613468858 47.373385215448145
-18.08797248585335 0.9204149293684032 48.33019332026156
-18.32807821060005 0.8146828362095395 49.29516480451387
-18.537134191287326 0.7121338403175655 50.267676655536995
-18.7151192114758 0.6155790481439962 51.246961345857855
-18.861774479411793 0.5275060137924745 52.232220384388704
-18.97683567610584 0.4505550236249652 53.22259378171295
-19.060873146933364 0.3869453894571815 54.2170240296127
-19.11506561788705 0.33864912027199284 55.21438587291468
-19.140975973727986 0.3072407335480634 56.213556612430004
-19.140743827709944 0.29358788487513177 57.21346338099963
-19.117630429119533 0.2978977076666618 58.21318694090662
0.0 0.0 0.0
0.10914806119851184 -0.06716371213325745 0.991753868915613
0.22284655962498973 -0.15308720059534597 1.9815466783389133
0.33009270285560516 -0.24963072499972772 2.9710807164890616
0.42116864572166 -0.3486905235397832 3.9619855196584997
0.4881258947400229 -0.4439074369690684 4.955187647224129
0.5233329396731038 -0.530356490338417 5.95082162874476
0.5188803048444407 -0.6048087664951698 6.9480362659308375
0.46663882416758234 -0.6655471669981916 7.9448219371766795
0.35999912592680605 -0.7116161120742919 8.938051833554498
0.19495772657010474 -0.7419230203153541 9.923872723884607
-0.0310616478006695 -0.7548890926242013 10.897909234174609
-0.318948283998252 -0.7489218519250531 11.855555137803544
-0.6672349703908622 -0.7233140111869834 12.792593356113976
-1.0715935318866625 -0.6790918722240723 13.706124174516175
-1.5249867057738788 -0.6193562174513706 14.59543080409978
-2.0186736784526937 -0.5484221842697747 15.462172712596088
-2.5435811138423707 -0.4707485574964968 16.30978051811496
-3.091403360251953 -0.3903273380173697 17.142500887624585
-3.6551145702669166 -0.3107792134519561 17.964633338986037
-4.2289953486836565 -0.2354250999821078 18.780097997783074
-4.808457675236908 -0.16692500558571988 19.592213229245445
-5.389672415083042 -0.10750642780050423 20.403791234614967
-5.969158944599561 -0.05897314983396229 21.217326656731743
-6.543375208508088 -0.022492016446175378 22.035217119550374
-7.108520707117842 0.0013803687270438347 22.859862906920487
-7.660881544837867 0.013142154292805963 23.693385051409486
-8.19740657979227 0.014909328049712678 24.537267604827964
-8.716254749282744 0.009640651892874219 25.392117777705025
-9.216921186884587 0.00010548835408552559 26.257705554256525
-9.699908254869255 -0.011174496579700488 27.13326038069486
-10.166170834012062 -0.02173672647219571 28.01784369875529
-10.616687607364877 -0.029014322335697007 28.910581999449402
-11.052328121975808 -0.03013602604819643 29.81070203800554
-11.474373282429168 -0.021439424084824132 30.71723513263154
-11.88525448783778 0.0006807668223007823 31.62865563503216
-12.288902478842749 0.038159741902468625 32.54280202691072
-12.688292523265527 0.09156102673415178 33.45802653226134
-13.085557921624801 0.16013080757130593 34.373164985405126
-13.482065374471368 0.24067155110272243 35.28765666304278
-13.878542693046223 0.32855582763342683 36.20148492360073
-14.274881211344546 0.4198450777398208 37.11503954798184
-14.670554502553982 0.5117042312549753 38.028825377670046
-15.064832310536499 0.6003990884523691 38.943526548785094
-15.457092076379144 0.6815752828701018 39.85979217706159
-15.845558388278691 0.7497754331995496 40.778727791788874
-16.22810944453821 0.796618657516996 41.701473911634565
-16.602284267196563 0.8177492808894227 42.62859132536622
-16.96576270121265 0.812142251551943 43.560177064430114
-17.316086145979952 0.7798109555587891 44.49624766611878
-17.649989356532377 0.7228072213077088 45.43712981615895
-17.9634936284069 0.6447000550322861 46.38349884676638
-18.253022861106913 0.5505348985730203 47.3360248289428
-18.51585476010812 0.4455840232962225 48.29514145722429
-18.74991279924768 0.33483622062904383 49.26103573638663
-18.95391525129375 0.22315195399961696 50.23361458879226
-19.127280252409463 0.11492397751969619 51.212507474400894
-19.269593692078434 0.01431162167479827 52.19720237067127
-19.380542681722478 -0.07434979830559996 53.187065732102546
-19.460836077718938 -0.14758904949776874 54.18114268216434
-19.51175568255462 -0.20280713346680213 55.17831777062482
-19.535020130089407 -0.23818153071964232 56.17742107734535
-19.532817042621787 -0.2527141442184484 57.17731304628525
-19.50847797623115 -0.24643606496823978 58.176997094156455
0.0 0.0 0.0
0.10071165105579244 -0.07499771889325302 0.9920849285733682
0.20628000896382637 -0.1700161346320891 1.9819469505133367
0.3057840246227095 -0.2764515071381459 2.971275238973367
0.38984761728607076 -0.3853702569375743 3.9617650260639046
0.4509036775608809 -0.48987227695736035 4.9544137480776405
0.4815636289413624 -0.5847745016092982 5.949428087239373
0.4737692333587397 -0.6666591767319483 6.9460394193932675
0.4190622705291388 -0.7337420134839006 7.942285895538238
0.31050905945684143 -0.7850779610250029 8.935050127798824
0.143869677849835 -0.8195872838911387 9.920463961237829
-0.08364954132027463 -0.8356714811821877 10.894104707871682
-0.37313238210054483 -0.8316805994798557 11.851279591452014
-0.7231318204259165 -0.8068247450804035 12.787699678631906
-1.1291432389918223 -0.762130535087014 13.700474106180776
-1.5838999866797714 -0.7008368619672232 14.588978121966727
-2.078490440705842 -0.6274696260926655 15.45500210055301
-2.6037978245532494 -0.5467229855958332 16.302074784874648
-3.1516012748533897 -0.46284547308941765 17.13446648517866
-3.7150176088471936 -0.37974916176114126 17.95645008454827
-4.288481395883435 -0.3010385302432633 18.771891021369637
-4.86756624511421 -0.22957747506561477 19.584020355271736
-5.4485981388294835 -0.16774537970382897 20.39554899337936
-6.0282207011606035 -0.11744974995696034 21.208880435575637
-6.6029456939345526 -0.0799064394854182 22.02636540945578
-7.168941902000005 -0.05571596073700369 22.85041826770788
-7.7224293039696885 -0.04434456395716602 23.683198182929257
-8.260310913290763 -0.043435995087445556 24.52621808118598
-8.780686899219228 -0.04974957859858087 25.380131994840177
-9.282946046961682 -0.06032735503895392 26.2447844447613
-9.767483198203724 -0.07259543438754046 27.11946909839102
-10.235132201158438 -0.0841093772602185 28.003308359317455
-10.686742902556876 -0.0923404863449282 28.895485484795152
-11.122986887293727 -0.09448907322104205 29.795311339811192
-11.545028186254456 -0.08693428285346172 30.701856466715554
-11.95529896945795 -0.06595652404420038 31.61357891246587
-12.357900998136484 -0.029417473729670185 32.52822447458599
-12.756116806735768 0.02326321829573319 33.44400223936811
-13.152365244374026 0.09126531405007487 34.35962382640189
-13.548179809607337 0.1712527012200965 35.27446416648472
-13.944311580110547 0.2585361769695905 36.18849984153197
-14.340589933752202 0.3492176944779456 37.102141088859085
-14.73640627784527 0.4405292271937228 38.01591985078228
-15.1309603784539 0.5289472619100842 38.93052868128296
-15.523509109840441 0.6103240125673012 39.84665275472459
[...]
CELL_DATA 87
SCALARS quad_param_group int 1
LOOKUP_TABLE default
3
3
3
3
0
1
2
3
1
0
0
0
1
0
0
0
1
1
1
3
2
0
1
2
2
0
0
2
2
1
2
3
3
2
0
0
1
1
1
2
0
3
3
2
3
0
0
3
3
3
2
1
3
2
2
2
2
2
2
2
1
1
0
1
3
3
3
2
3
2
3
3
0
0
3
1
1
3
1
1
0
0
0
1
2
1
1
SCALARS single_component_feature float 1
LOOKUP_TABLE default
0.018128912233412717
-0.01750555630946292
-0.022222349719860708
0.018110931810243973
-0.05048397380379821
-0.030039016303788434
-0.028436665208835653
0.025777558233691482
-0.0030459787345145095
-0.00878796127614162
-0.025467135548239612
0.03289717864128796
-0.008974993386037994
-0.05394173816182353
-0.003310830024772775
-0.005263565634324084
0.027004172535688355
-0.023731310908542136
0.017244402304556906
0.01981066351251917
0.014278539147323438
-0.0005220481039512337
0.05579092862228833
-0.014120061738117348
0.04269746182547524
0.016195880329768604
-0.0026850196024704436
0.06602462348871839
0.039980841700434824
0.018239405473096888
0.005729248252089404
-0.007440350650020251
-0.02687451511698996
0.03285709588303896
0.0018587717308561867
-0.01794891710431868
0.00887811944910416
-0.020054768644019796
-0.0024904366242527627
-0.05277326975851324
-0.02344162087779214
-0.039923709523463316
-0.010326466206215091
0.017189614025043293
0.00330069108475265
0.020378709060338947
0.035666570104586195
0.04779017830172173
0.0243323028264982
0.012261950207475454
-0.011714157614257792
0.026360683340533236
0.022051929136086036
-0.016988681955262222
-0.02086476273031803
0.04909941797887096
-0.03622026893280833
0.017470581747369512
-0.01120149985041226
0.003058786295974983
-0.011557050255481809
-0.011204646963478775
-0.009331007508613017
0.03302656194398655
0.024250610641081798
0.005406824036102004
-0.023075374475159893
-0.029570956614118404
-0.027286614701692684
0.02153555511750944
0.009412908589625887
-0.02443610254637483
-0.018711246846055477
0.021506452183621586
0.026111289905939486
-0.007977169401720581
-0.001862431240636054
-0.017739673891754827
-0.013469589588729708
0.03165313843174629
-0.05053215944578744
0.01609709594405155
-0.013430709600412157
-0.049272277521947516
0.04583176021535493
-0.03295539915353321
-0.03608430648304458
POINT_DATA 5568
SCALARS single_curvature float 1
LOOKUP_TABLE default
0.010732678495790227
0.01906234168277201
0.0274048626675993
0.03684789003657313
0.04476049574636231
0.05111770863777661
0.05587756556251554
0.059478078627792814
0.06183995665914782
0.06301635302065325
0.06303257390176897
0.061459157776651195
0.05793540554879741
0.052234759101636385
0.044552190496090105
0.035699760521765676
0.026675676852009923
0.01837586375281648
0.011911640834283865
0.008503742960982698
0.008124121258645707
0.010247029206900644
0.013808180277557211
0.017280433672235647
0.01995862343043247
0.02144858732273906
0.021601069339572912
0.02048950293224876
0.01863705829143198
0.016720023767467687
0.01547306855305306
0.014978067002783922
0.014753385014353445
0.014855947026148633
0.014742342857936843
0.013984185438016517
0.01245287850920341
0.009933670008090307
0.007097352787414921
0.005594131371158549
0.006476058774593131
0.009496101018651469
0.014360843278729786
0.019230622121214656
0.023003751699014023
0.025986882945649957
0.027713081360984066
0.02880033799945021
0.029633082760248102
0.030381180314837095
0.031080921969271792
0.031557088486441676
0.03204866949346972
0.032402484751542594
0.032822904783926306
0.03329798416553375
0.033625392216857196
0.03362223116873457
0.033055054091240876
0.03182598615865158
0.02341559901646697
0.01500521187428236
0.00659482473209775
-0.00181556241008686
0.01206260052361634
0.018193399818417767
0.021597428852951586
0.028849456856678543
0.03716098549111093
0.04512298348970801
0.05207931682787182
0.057810075483256916
0.06204532594688798
0.0646111043733485
0.06526795278809623
0.06337044142141639
0.05858841761896348
0.05123331473014695
0.04223004752558494
0.03281489639930881
0.02416111201051624
0.017220720626485487
0.012672516294711606
0.010693114983642683
0.010941265419418963
0.012812232642795717
0.015425497501647522
0.017976247311339406
0.020001324658810455
0.021151788959221398
0.021314089186680988
0.020719040947723966
0.01973795084802499
0.01878065907994444
0.018176986230855317
0.01795485260692727
0.017745020763316712
0.017446593492106137
0.0167874616731434
0.015258462558366602
0.012803906895518512
0.009529891874519405
0.005927510979093165
0.003818882163130571
0.00396060745463844
0.006550838028196616
0.011945063074550852
0.017897112913168353
0.023194605218823983
0.027276729271165395
0.02915945697835217
0.029775164648059575
0.02986580345506645
0.029719997045562718
0.029744786686220475
0.029980721489056773
0.030471665836788273
0.031209602804482324
0.03216713020283309
0.03310820390420426
0.03388916146122765
0.034288151123168596
0.0340281289058025
0.03298197663679338
0.02434035565042724
0.015698734664061104
0.007057113677694966
-0.0015845073086711708
0.012334280977239695
0.01821421005541563
0.0210230653150858
0.027939541753525445
0.036305184857219557
0.04445733264773215
0.05167346632188873
0.057663612950281315
0.062139191582822946
0.06489496087143058
0.06564910291805606
0.06371987314810232
0.05877526719712138
0.051192809161137776
0.04199326539662662
0.03247540331963777
0.023850781892625243
0.01708357192306634
0.012784540445102063
0.011030167761090134
0.0114078727066181
0.01328219213749069
0.01580186085561772
0.01821006922030733
0.02010137224050077
0.02115971906124189
0.021287315372034703
0.02074432139262331
0.019876050560702473
0.019057288293076208
0.018565575895292282
0.018406583216876955
0.01821192614493462
0.017850676316880202
0.01709630089626929
0.015454442179217227
0.012893698956140395
0.009558956350386014
0.005895615520457169
0.003707114564588285
0.0037394290212586574
0.0062519367468930375
0.011689507964350598
0.01779260511733724
0.023292634559504276
0.02750390741866505
0.029385569832645324
0.02991048806484584
0.029889868267812363
0.02963725903568831
0.02959887681708425
0.029819003647676926
0.03030168460046965
0.031066129056430695
0.032063495709388025
0.033049336531574
0.03389044433286798
0.03435290330337132
0.03414693340634734
0.03313362326367033
0.024464881047532448
0.015796138831394566
0.0071273966152566835
-0.0015413456008811985
0.0107329708351952
0.0190613988334745
0.027401259490917155
0.03684340920498088
0.0447562181807071
0.0511143100440739
0.055875358152693066
0.05947700162720996
0.061839838483435834
0.0630169095825103
0.06303340970524418
0.061459794040113785
0.057935398455255575
0.05223395120516116
0.04455079196538188
0.035698172551485635
0.026674340482762855
0.0183752210764296
0.01191197164074299
0.008504624528784088
0.008125144211447896
0.010247813847637042
0.013808391375275933
0.017280299721689856
0.019958335907784074
0.021448286113854943
0.02160088813408601
0.020489634729568388
0.018637641326594224
0.016721055140040166
0.015474326771042901
0.014979367196198952
0.01475464457266177
0.014857033072891691
0.014743238390501663
0.013984733948104355
0.012452905834428634
0.00993317758349058
0.0070963767864486525
0.005592852584902794
0.006474454551428645
0.009494363152551163
0.014359424695728843
0.019229718575884208
0.023003605987625735
0.025987339136764445
0.027713687019764423
0.02880080224965881
0.029633220174268417
0.03038083327230157
0.031080150722103798
0.03155614423652088
0.03204775290693651
0.03240184207050923
0.032822635423166956
0.0332980041486256
0.033625638071400246
0.033622643507605715
0.03305557507177462
0.03182656952191831
0.02341605482354339
0.015005540125168464
0.006595025426793539
-0.0018154892715813858
0.014240812580305604
0.018826707453787492
0.018413466409086976
0.023326752519033444
0.0320294750807572
0.04120534607957946
0.04978157286144881
0.05717228477372548
0.06302559626555368
0.0669376380755327
0.06833192491673629
0.06627131701045778
0.06038417281010664
0.05141445014815993
0.04094519175633876
0.030674572175016575
0.02212352727929806
0.016330484260099063
0.013489346989121263
0.013182769197277495
0.014505465902316455
0.01658446795248811
0.018711252681188142
0.020244865859403705
0.021156846899574016
0.02144870117208971
0.02118679923353074
0.020869651840994013
0.020671453488817854
0.02074956760918541
0.021049193681357936
0.021388730948592005
0.021339843472489583
0.02054077311395208
0.019113074472602288
0.01675378516150403
0.013625994953732854
0.010067862694919272
0.006256888376986444
0.0035992331755565214
0.0029483066897050924
0.004956670222753406
0.010504665162532411
0.01753934040911125
0.02423516095715314
0.029124495857072448
0.03088959208314674
0.030738768145694755
0.02999929655785127
0.029174534322170854
0.02889236227103431
0.02909855461728886
0.029494496751776664
0.030298686513781054
0.03138034677829642
0.032548052635146464
0.03374393126113739
0.03463034289485727
0.034808517678672116
0.034030614962052334
0.02521643563789767
0.016402256313743008
0.0075880769895883445
-0.0012261023345663188
0.01281900572182953
0.01830505998677624
0.020162346538046265
0.026517156252411567
0.03497393100372641
0.043429068354573094
0.05105622089668189
0.057461160979000954
0.06232909031588091
0.0654018961462439
0.06632338585268326
0.06434763892386879
0.05913654923257939
0.05117416607457394
0.04163909173511097
0.03193650691341435
0.02334967607594104
0.01686360524120885
0.012974174218415936
0.011604694699745888
0.012216623524618104
0.014116203701540259
0.016498365305426747
0.018666592469249496
0.02031585920383403
0.021198148184088078
0.021249072762931944
0.02078346963322857
0.020101368932342836
0.01951885055309021
0.01922555482708673
0.01918420879840912
0.019020781195478398
0.018549418727311463
0.017626225144434397
0.015792685035397314
0.013063594758103031
0.00964470113449289
0.00591111508879487
0.0035910072367594586
0.0034381795224474594
0.005815813332378444
0.011301618357826716
0.017658162389617545
0.023492621432450914
0.02790827032189846
0.029776613839696046
0.03013690706160556
0.029926018467385403
0.02950323505488901
0.02937422139512499
0.029576623969911505
0.030041577028878816
0.030837331374589726
0.03188440495822491
0.03293539328306018
0.03387577247610211
0.03444823201055859
0.03433838232541099
0.033383701688782845
0.024671859757533453
0.015960017826284062
0.0072481758950346704
-0.001463666036214721
0.012716461943525832
0.018281021173341766
0.020329749747290536
0.026799871017878424
0.03523781235563553
0.04363207808965002
0.05117703114206712
0.05749854104739957
0.06228668214667095
0.06529429463806478
0.06618086441264508
0.06421403193781201
0.05905724893646057
0.051173039650579566
0.04170776808120479
0.032044521836349496
0.023451021306108204
0.01690796194285166
0.012934924393079543
0.011485426894533947
0.012047460928302531
0.013939868414994215
0.016348419168010903
0.01856611782360307
0.020266971688556755
0.021187688831218396
0.021256279931442412
0.020775724541294463
0.0200555311027473
0.019423886613820995
0.01908862192638132
0.019021857691175304
0.018851427325902788
0.018403272373499487
0.01751578871909427
0.015721995640389456
0.01302665927739226
0.009623449183248745
0.005901270732486319
0.0036080509099013776
0.0034935137467195314
0.0058992850277488195
0.011377464071929785
0.01768175480344095
0.02344781840833522
0.027822577694423853
0.02969482941587992
0.03009029427421275
0.029918986804012424
0.029530376485801757
0.029418504503983107
0.02962367670785091
0.03009266792735586
0.030883283340857534
0.03192182413848698
0.03296038055830031
0.03388046194960681
0.0344298944823247
0.03429968622138557
0.03333256692763519
0.02462937391646319
0.015926180905291187
0.007222987894119185
-0.0014802051170528172
0.010643308818693225
0.019508718028630804
0.028995339303972432
0.03878878646639905
0.04661402976507982
0.052591743074593175
0.05683942048837035
0.05995604091745272
0.06191006817734492
0.06280246624463266
0.06270413512048902
0.061218739475905365
0.05796897056937491
0.05260533645101659
0.04516680319018045
0.03638640589383784
0.027249587695325175
0.018655636824698903
0.011778201560119321
0.00815717349194367
0.007734315887488425
0.009966772284727565
0.01377854080011161
0.017380868200225705
0.020107677706154126
0.021589758829149965
0.02168144560843514
0.020432150093071002
0.018386360522509526
0.016281885737016152
0.014948409440256473
0.014444743756192036
0.014242081899682757
0.014415944228008662
0.014374624740171585
0.013759693294838405
0.012455068130785762
0.010169039018104328
0.007545730682181173
0.006170703836563193
0.00718594755638387
0.010255188695470124
0.014980758431791414
0.01963474905125809
0.02308737488395857
0.02581091184435237
0.027467432887609583
0.028606031992174603
0.029573154760043227
0.03052983504842248
0.0314171480015067
0.03197139081254818
0.032448648757103696
0.032678916362034675
0.032931594695615775
0.0332789689406394
0.03351081458693334
0.03344030912842192
0.03283121718557342
0.031578392739917686
0.02322313181235428
0.01486787088479087
0.006512609957227463
-0.0018426509703359448
0.011352040329276758
0.01831231765087367
0.02363234762046054
0.031867729164077235
0.04001658061375156
0.04736212244538207
0.05347221899743486
0.05837035771094902
0.06185507091099545
0.0638460119586265
0.06422237828838051
0.062438755577679424
0.058162043323478525
0.05149311023899408
0.04306115632263791
0.03391969884587475
0.02514715427517105
0.017662813051453955
0.012342785236159394
0.00971603866572447
0.009629614674612487
0.011545737598426958
0.014494448079376294
0.017462464187873488
0.01983329244341242
0.021197795086271547
0.021412880475937698
0.02063389428238985
0.01930395232065017
0.017939548711635476
0.017030279598613297
0.016652838443004157
0.016414864497586633
0.016293727131863656
0.015894385151371763
0.01469680827957623
0.012590560972973433
0.009556641350722638
0.006212279740528119
0.0043496865360076985
0.004812546494867452
0.007615157935934803
0.01282553925377572
0.01832478949929152
0.023000497806339986
0.026661276777420775
0.028514984029240315
0.02936805240510443
0.029781711656305353
0.02998127267053587
0.03023873216132737
0.030546815569147897
0.031051333950153415
0.0316722751388492
0.03246164782403532
0.03324031283960826
0.033836453735506394
0.03405528682303148
0.03364872305161816
0.03251422120879603
0.0239609610732821
0.015407700937768165
0.006854440802254232
-0.0016988193332597018
0.011609840243955095
0.01822999008767414
0.022773321972823637
0.03062912372880728
0.03884211404935964
0.04643841356761986
0.05289302591714051
0.05812806595251773
0.0619130263019167
0.06413073223523148
0.06461522447333812
0.06278341099663888
0.05830491895069252
0.05136561802619804
0.042712389112934325
0.0334696814365807
0.024749551453622416
0.017483234478597492
0.01247100138269772
0.010092727370212613
0.01012721239413802
0.012015504802639125
0.014822413184406547
0.01762925245644111
0.01987499792351171
0.021166976870129625
0.021370685063121696
0.020669070460092608
0.019478272636444027
0.018272479201508342
0.01747764377563377
0.017154840918605772
0.016924622034983818
0.016735697032214225
0.016239122304817513
0.014912695789040413
0.012663926942633828
0.009524349840972274
0.00606669117893081
0.0041062712644034365
0.004444481874529611
0.007168144881304499
0.012458742515031597
0.01813582638339554
0.02305837989550852
0.026890889287018716
0.02876190015813885
0.029528167740245182
0.02981692884047006
0.02987622823300825
0.030034334565865517
0.03030952580912046
0.030810801896956272
0.031484641025365086
0.03234906520619806
0.03319671998042946
0.03386626157424382
0.03415396938765994
0.03380208916422999
0.0327004114127873
0.02411112819880013
0.01552184498481296
0.006932561770825789
-0.0016567214431613825
0.01253063273198032
0.018243733093494956
0.020652220626246363
0.02733595599473028
0.03573920267923319
0.04401896843494697
0.051408755718220844
0.05757344360182504
0.06221283045120546
0.06509989478339093
0.06592258596818382
0.06397312364234319
0.05891742854658084
0.051177706372591385
0.04184041116740438
0.03224806286733816
0.023640731044800235
0.01699116378826769
0.012862687665396689
0.011266385431696963
0.011738475943174505
0.013620305210462242
0.016080216403481506
0.01838925857651094
0.020183065376133815
0.021171828939626214
0.02127050237061939
0.020760989152135104
0.019970108761126218
0.019248381978131158
0.01883709988941344
0.018724996162190144
0.018542400477201213
0.018136378024109185
0.017313573118656365
0.015592828984923155
0.012961069038705713
0.009589017361750118
0.005891922481469286
0.0036486608307446074
0.003604644797982091
0.0060619442613390456
0.011523044253841088
0.017730897099602277
0.02336997551741521
0.027667575744458335
0.029545463064378854
0.03000417291031679
0.02990543962672818
0.029581136771584856
0.029502994534820737
0.029714477898364827
0.030190404317946205
0.030969753455967742
0.031990223260373415
0.03300448099926052
0.033886870793600976
0.03439427543923501
0.03422722630833263
0.03323762506891236
0.02455071356508926
0.015863802061266155
0.007176890557443052
-0.0015100209463800515
0.010619431347107201
0.02000114524505688
0.03057303963727524
0.040654014710789825
0.04839590201337633
0.054010891299191746
0.05777329621075931
0.060435287817331464
0.06201049637762831
0.06264435715711165
0.06244711607075513
0.061049184910710125
0.05805472891084131
0.052997987054187415
0.0457735548385045
0.037044966471011645
0.027793125745407033
0.018928188793394838
0.011669989392566213
0.007891313069644409
0.007458158727407731
0.009805582202699864
0.013859848058229105
0.017550439094578155
0.020293087951411
0.021744050411471736
0.021762217489703233
0.0203766018107449
0.018148119750425785
0.015875296002736197
0.014479986120945712
0.013984948038265768
0.013811444530399923
0.014046991931735331
0.0140564564250893
0.013566647168369831
0.012481752561171525
0.010433591493194049
0.008021180791321494
0.006764173320787392
0.00789403583639746
0.010995767140575723
0.015586116578940089
0.020045424886507752
0.023203542922853964
0.025679565115550113
0.027260562501543673
0.02843125420681722
0.029514989043590484
0.030669955775139424
0.03174424565179943
0.032379010779162276
0.03283839294165926
0.03294130921454783
0.033022178510357277
0.03324264523231157
0.033386613339107314
0.03325970122042595
0.03261929305403459
0.031349336837024636
0.02304683618397866
0.014744335530932684
0.006441834877886708
-0.0018606657751592676
0.011618809134981194
0.018228115224760484
0.022746489127471695
0.03058964690462983
0.038804734670577226
0.046409071599828905
0.052874725666797184
0.058120607984548656
0.06191530356051287
0.0641404312137235
0.06462851819510386
0.06279520010860315
0.05831015848143378
0.05136200182225308
0.04270143988633228
0.033455269523111994
0.024736731106277443
0.0174774760073221
0.012475241937001195
0.0101052660904627
0.010143963251268288
0.01203156616779883
0.01483404330309456
0.017635517398829337
0.019876909693260225
0.02116624874342218
0.02136937562988808
0.020670186315057428
0.019483906171277297
0.01828334530528279
0.01749239263217075
0.01717152716712378
0.016941638086447625
0.01675044908549121
0.01625057389861584
0.014919887327514238
0.012666570486117117
0.00952378727409755
0.006062653829569892
0.004099048914813583
0.004433131588320985
0.00715409465271145
0.012447169549866993
0.01813009150738603
0.023060690221434747
0.026898698213650256
0.028770145467852202
0.029533419776877737
0.02981803625011086
0.029872834076718865
0.030027857049323013
0.030302070305769684
0.03080319288723065
0.031478612732340934
0.03234529882141172
0.03319510193936823
0.033867035153039814
0.03415704634402619
0.03380702569469251
0.03270646762055585
0.024116031567196484
0.015525595513837115
0.006935159460477746
-0.001655276592881623
0.014498289793436682
0.01895038946003266
0.01818563173735354
0.022865433983054087
0.03161024428434065
0.0408979140137774
0.04961561400108717
0.05715785968207158
0.06317137692019063
0.06722647786903886
0.06870564465265493
0.06663610469296988
0.0606380943435224
0.051496750789039654
0.04086199825234805
0.0304833092642743
0.021929205823728443
0.016246362963867583
0.013578759003158731
0.013458550078589324
0.014913451121656145
0.017038370049109925
0.019136684225942908
0.020563463522933905
0.021337729366585928
0.021512404629412854
0.02118186579496356
0.020881933057195157
0.020765338911782612
0.020961713018396114
0.02137198538065735
0.021785931322286248