# vtk DataFile Version 3.0
vtk output
ASCII
DATASET POLYDATA
POINTS 5568 float
0.0 0.0 0.0
-0.10266032190070515 -0.058495151458154565 0.9929950531413191
-0.18185342686474137 -0.11600304492760305 1.9881941760885118
-0.2512140325559382 -0.16834171944685514 2.9844119080767144
-0.32189004342527433 -0.2135678299849934 3.980885440295804
-0.3996812790095474 -0.24989013236335575 4.977193231099533
-0.4884497835035026 -0.27733825734981893 5.972867250568071
-0.59305554177191 -0.29635069462062524 6.967199268842709
-0.7197777421588551 -0.30766085623749667 7.959073033075482
-0.8752824123908154 -0.31243502843475757 8.94689665337208
-1.0654999447558662 -0.3113605672446197 9.928638032714982
-1.2955491605187395 -0.3042369994800746 10.901790956519454
-1.570328604551871 -0.2901235138793452 11.863194652508314
-1.8950758137539816 -0.26776067828010264 12.808731089510824
-2.273362310161798 -0.2366295857735882 13.733896037892922
-2.703720287331961 -0.1974610716496818 14.635704132216393
-3.1795516631349514 -0.15215726566345744 15.514073113319776
-3.6917996105430184 -0.1028846645865415 16.37149614261123
-4.231188751792753 -0.0513212388096117 17.211972535750277
-4.789488200385339 0.0013877816022946354 18.039935991990003
-5.359745423530448 0.05427651301829706 18.85969783639363
-5.936541124441565 0.10609641765872468 19.67494100066642
-6.516082677977604 0.15508082584902794 20.488410185995082
-7.0956412050464035 0.19922397308199147 21.302144354046426
-7.6725579508311075 0.23663121407673354 22.118090287766517
-8.243439283383475 0.26527168552540215 22.93862318018365
-8.804001776976053 0.2834449742249402 23.76653587023926
-9.349411995732636 0.2908872557772044 24.6046720797668
-9.875980152264905 0.2892994599709571 25.454803513976056
-10.382031342640186 0.28136004398609593 26.317270416757594
-10.867495898370477 0.26933877772698933 27.19144411476453
-11.333932224591074 0.2552532343978853 28.075886736448354
-11.783201192484213 0.24156598545798402 28.969178432203268
-12.21679700306345 0.23212633834459 29.870236458143058
-12.636924298245386 0.23242474154808296 30.77770159069562
-13.047359749003293 0.24746499589708804 31.689467202851656
-13.453428045281884 0.2808894068158122 32.60269847011759
-13.858345299519126 0.33301707755872656 33.51556468329665
-14.262837226416138 0.4026656906476418 34.42745028564485
-14.66598223005933 0.48730325066148883 35.33866408573374
-15.066860840647855 0.5828083481134416 36.24980354593361
-15.464690592378794 0.6839572997275678 37.16166997158216
-15.858566289781725 0.7880054468162343 38.074925641196515
-16.248052897827893 0.8899159217534791 38.990302305335796
-16.63399869678165 0.9832410650618348 39.90809109252837
-17.016357581563202 1.0616254191440266 40.82877430420529
-17.395796173893963 1.1121028215616735 41.75261324389944
-17.772339838146966 1.127650392004107 42.67888164018869
-18.14382438135032 1.1098828837247443 43.6071507551605
-18.506326156869694 1.0624700948298609 44.537927038804696
-18.855088571879442 0.989512335730321 45.472294173962894
-19.183189779383408 0.897201302805245 46.41241558677868
-19.48655260884333 0.7954718460077019 47.359844798552174
-19.76257469145694 0.6902343944798618 48.31521744244856
-20.009566715356367 0.5862933060607678 49.27864423793866
-20.227098187282554 0.48694450555993385 50.2496282102887
-20.4150843674011 0.39383484151995984 51.22737653503633
-20.572802188813046 0.30855555642988775 52.211171499621734
-20.699134110322653 0.23312370623148826 53.20028740869576
-20.793661964219982 0.1695652634060304 54.193778631195066
-20.85696478148674 0.11958965361285817 55.19052092073228
-20.890505668900595 0.08410584303567992 56.189328163426495
-20.89650243546613 0.06317810339296526 57.18909116959556
-20.878421255726316 0.05645969206958218 58.188905119232444
0.0 0.0 0.0
0.09114916299756531 -0.042028403869811326 0.994949970276395
0.18963767905122192 -0.09496761973813533 1.9886790337684497
0.28364401103874975 -0.15293212883179153 2.9825617860243594
0.362321914513477 -0.21161305095108174 3.977733297314776
0.4172001021484473 -0.2672453979884979 4.974675334990493
0.4408126081760007 -0.3166798201152424 5.973173551047033
0.4263506256618804 -0.35795637971829425 6.972216641553692
0.36698757693442097 -0.39002461016576173 7.9699378736830635
0.256952545215846 -0.4123081372503493 8.96361575721241
0.09245060014229531 -0.4240150171742168 9.949923041495289
-0.1290287044537114 -0.42388019573612884 10.925088104168706
-0.40867775136650214 -0.4105827186756307 11.885098306023142
-0.7464076462662776 -0.38351484147863457 12.825952092812054
-1.1400520160758718 -0.34337726883198083 13.744338223684707
-1.5843576146985325 -0.29240313187482736 14.638762156947918
-2.0714824947911286 -0.23382497705636093 15.510127723729644
-2.5924492878055196 -0.17095927114118725 16.36138649965861
-3.1384728045251045 -0.10657382755518996 17.196678564653492
-3.701837705182167 -0.04292334340837847 18.020431321599126
-4.276109310480016 0.01798711885955978 18.836827082817262
-4.8560523954371915 0.07438385991099827 19.649529627300254
-5.437388665321117 0.12457572179517329 20.461643485277104
-6.016422879775435 0.167014363807026 21.275841458840944
-6.589637146678557 0.2005102215671269 22.094562065477685
-7.153408052820226 0.22430417108801554 22.920150469801776
-7.704090243685672 0.23832780075552218 23.75474765555942
-8.23838728181495 0.24354510835431903 24.60002835139229
-8.754247097310246 0.24187235079486297 25.456699731000192
-9.251254483702265 0.23552416671925502 26.32442281956631
-9.730142946624445 0.22681954599030313 27.20225541730804
-10.192360420250955 0.2181850313517718 28.08897998121235
-10.639439623374058 0.21228398806046106 28.98345489076705
-11.072932591125554 0.21242265140665273 29.88461182919813
-11.494619853914994 0.22275478361302659 30.79129429811722
-11.90716745812424 0.2467957024679498 31.70191304846328
-12.314248692591804 0.2861699458498046 32.614455944716646
-12.718033332981934 0.3413355290686849 33.52764525839324
-13.11958539488492 0.41165108440138454 34.44077814262188
-13.519308456375272 0.49444239270615753 35.35366755179583
-13.917485155505439 0.585354824745085 36.26646010543032
-14.314016266010954 0.6800997795851842 37.1795791951079
-14.708543709658334 0.7756458490838534 38.0934823873621
-15.100650174818547 0.8674064477166687 39.008814301215274
-15.490418405463439 0.9499085740590854 39.926024269286344
-15.877120656291734 1.0177219198931762 40.84573222256886
-16.259749683645136 1.0625830359553818 41.76854450450504
-16.636795639888902 1.0801552691493712 42.694572346149556
-17.005987934392618 1.0700118720855905 43.62387001706835
-17.36402242577963 1.032641840749893 44.55683024330268
-17.70660687201842 0.9703318567423274 45.49424870007011
-18.02829927225519 0.8874353208873944 46.43745714149393
-18.32498838122984 0.7907997456427152 47.38752931675903
-18.593731758194927 0.6862222236515401 48.345047222195575
-18.832779818909323 0.5790790269554305 49.31012564391602
-19.041525254430866 0.473692017334278 50.282400770283054
-19.219666397182394 0.3733115123944655 51.26127230806889
-19.366761568348718 0.2809504108293024 52.246073017622464
-19.482334894810222 0.19982655317137626 53.236053687095016
-19.56681012532485 0.1326281622868994 54.23021077311917
-19.621290157605777 0.08152324753635137 55.227416977357294
-19.64739207215388 0.04804147760879868 56.226515401507505
-19.647310524832736 0.03292104523650424 57.22640107791002
-19.62438584726567 0.03614610244527344 58.22613307107841
0.0 0.0 0.0
0.1987235554365444 -0.03206211285746524 0.9795309946263946
0.3964701730813588 -0.08160702002714931 1.9585312895107132
0.5822347874332836 -0.14197692005753232 2.9392692683944732
0.7446798030255852 -0.20767222928237034 3.923797451462418
0.8732868479616406 -0.27386767457588973 4.913281352804531
0.9583511182461684 -0.33554821311016 5.907745822299084
0.9920563711799413 -0.389298872753901 6.905731204212333
0.9675106488188943 -0.4329857469664398 7.904474897326493
0.8797923085722608 -0.46501187090180324 8.900105260548735
0.7265679452283877 -0.4837606663165666 9.888118811644246
0.5069142520518166 -0.4873934153767176 10.863689956260648
0.22184121505605509 -0.4744258463714857 11.82210803086698
-0.12539605508872187 -0.44468795197266414 12.759413709852831
-0.5293302224303174 -0.399617614517558 13.673090815364256
-0.9826736930604838 -0.342278672295988 14.562580524884218
-1.4770104329775615 -0.2765985643122381 15.429366144852269
-2.0035043128319647 -0.20649013273639788 16.276649451838683
-2.5537184597070723 -0.13530013420399262 17.108632851124664
-3.120288361605252 -0.0658823163319327 17.92971732474779
-3.697121678367962 -0.0007987120267171632 18.743982299509184
-4.279120321473906 0.057900203028655395 19.55505074100729
-4.861754129278253 0.10856494864346669 20.366204813644043
-5.440792888547008 0.14988553652989178 21.180457062201715
-6.012224793996283 0.18104707204144863 22.00051470416304
-6.5722977130713 0.20200408627753008 22.82869290290598
-7.117761735929178 0.21360928180310726 23.666746790913496
-7.646219333297728 0.21749641802792974 24.515697589225994
-8.156533681448813 0.21568703579637247 25.37568363109358
-8.648955646851762 0.2101204635952636 26.246022427920785
-9.124598161076003 0.2031130482871829 27.125633191152534
-9.584818466832235 0.19728910280672285 28.013418836355633
-10.030959152029915 0.1954074770254817 28.908379700581417
-10.464589463571675 0.20045994051345317 29.809456404045054
-10.88728966478755 0.21589562510923443 30.715594516880575
-11.301185992811098 0.24447367100598663 31.62546985171571
-11.709177577039245 0.28686163292093364 32.537471018317866
-12.112839969671702 0.3435734337413241 33.45061966143242
-12.513293158198843 0.4142516173741463 34.3642070070961
-12.911609188454023 0.4962680855555307 35.277781108627444
-13.30871685292636 0.5852331943774562 36.191231004478134
-13.704924638977996 0.6771988388044612 37.10477449578941
-14.100111234467239 0.7687677773352941 38.018800033858206
-14.493933565370105 0.8554552750499171 38.93388978323922
-14.88609831220758 0.9324986243632158 39.85055282583693
-15.275494078095985 0.9950930659812862 40.769493995546235
[...]
CELL_DATA 87
SCALARS quad_param_group int 1
LOOKUP_TABLE default
3
3
3
3
0
1
2
3
1
0
0
0
1
0
0
0
1
1
1
3
2
0
1
2
2
0
0
2
2
1
2
3
3
2
0
0
1
1
1
2
0
3
3
2
3
0
0
3
3
3
2
1
3
2
2
2
2
2
2
2
1
1
0
1
3
3
3
2
3
2
3
3
0
0
3
1
1
3
1
1
0
0
0
1
2
1
1
SCALARS single_component_feature float 1
LOOKUP_TABLE default
0.04545804834129456
0.00903791872263536
-0.010533875999021718
0.02751446876229636
0.02479734292838838
0.020279251621870303
0.0033959505184743416
-0.02013095822390619
-0.04065431745797288
-0.0006777086106167785
0.006696320612373893
0.043655940939030816
0.025331951242766784
-0.007468452487890423
0.023145053791190327
0.0009844267515420266
-0.012814729017761721
-0.03318423519758962
0.002244435186380154
0.04684457330075119
-0.014600382011775576
-0.020903275336840495
-0.0039026846713043992
0.008166974588528692
-0.015296369637982907
0.04155393175098955
0.00010486328782207018
-0.024256296649191614
0.004668063292637591
0.01157163119158958
-0.015602993228281518
0.035292327460937384
0.017946781183565456
0.015744038136631538
-0.025468803267097988
0.019722607161477963
-0.005008754843291939
-0.00624964199962013
-0.03796964684109988
-0.03126108159552228
-0.02819200335799036
-0.0006523466023467496
-0.018209326852812197
-0.021288182657960963
0.018418539406127043
-0.02782254468833862
-0.02233179553921929
-0.006979551442851247
-0.026972532775017363
0.018683522632179393
0.012364396795319414
0.013846387045737707
0.021783334451253387
-0.040749656919886884
-0.04268525386971373
-0.0309174439612004
0.04673899103408954
0.024617383002398796
0.0068584232137968715
0.009722811031765297
-0.03388305716892101
-0.03018822742501566
0.01577497626036896
0.013412573238357598
-0.006844761630324913
0.013779505738024962
0.024252549976485682
0.01935626112909252
-0.016186401782803662
0.032334321771954125
-0.020831466848915053
-0.025121542701882014
-0.02610948209042875
-0.025399964047019007
-0.020357110380724026
0.004216048988959494
0.008812181416227926
-0.01846858099553844
0.019582325086395482
0.06757554436121715
0.002753511364561062
0.02199076367333373
0.02581195336563659
0.0347582094570249
-0.04323220431980681
-0.029105698522856424
-0.02308807155514023
POINT_DATA 5568
SCALARS single_curvature float 1
LOOKUP_TABLE default
0.01049514110390917
0.013344377608392625
0.010979727045476551
0.012689046303458035
0.01676531818600358
0.02136112824641086
0.026755113864169042
0.032547933481860844
0.03834405755553049
0.04415025227483198
0.04969021674911192
0.053785301722061765
0.05496885202946723
0.052260514400592414
0.045813165254935305
0.03710162304703054
0.02785960717441485
0.019322183208173797
0.012387022097625964
0.007923908766274619
0.006190240806582057
0.0070827324576640685
0.010112243839883782
0.014198181786447687
0.018328314159152728
0.021621124092308718
0.023516040587500467
0.023647125543350137
0.022454319639306747
0.02076344861080246
0.01920951480629611
0.018319547404097646
0.01822823049204993
0.01841365420993664
0.01834896298182655
0.017575633300609746
0.0156136174508835
0.012542821005622207
0.009429001540435158
0.006993890357121252
0.006617268235762632
0.00891196330846536
0.014695483061530694
0.022144287825991916
0.028179617890633148
0.032035810887142475
0.0322831373816399
0.030723995826828675
0.02915208161145921
0.028555021642615086
0.028786664153739212
0.0292537679332167
0.030123818940693364
0.030912203272578417
0.03170301441926226
0.03256922561326461
0.03338326176304187
0.0337134654937173
0.03317587307911702
0.031610378694064634
0.023066516318642084
0.014522653943219534
0.005978791567796984
-0.0025650708076255663
0.0088347881106337
0.014848343045797062
0.019522483203531445
0.027567874145605454
0.035171308040300525
0.04208374751019476
0.04808197154387636
0.05314168747502604
0.05704579931177747
0.059763962199571405
0.061179158506470516
0.060638982970307904
0.05757534815268207
0.05182530833106657
0.04387252645310941
0.03483270884081236
0.025898259276022653
0.018038474264992572
0.01219968455735997
0.009077615442798125
0.00861528110391963
0.01037657977703527
0.01344254211611453
0.016716357919320086
0.019503175859578545
0.021293767901749628
0.02185064932901674
0.021211767359560978
0.019833608789074607
0.018322658812319235
0.01723951343304297
0.016751105522017196
0.016542864303729615
0.016503878270561226
0.016195590057698214
0.015113847291803652
0.013083297615036854
0.01009356127785914
0.006839467433982858
0.004865505085655435
0.005231608297127544
0.007988432073488537
0.01329259378545271
0.019121371263164922
0.023933338598952577
0.027540105192077675
0.029077944690425035
0.029541767425619654
0.029629553845228793
0.029714443871610107
0.029982939501437485
0.03030711840080113
0.030896727093534967
0.03155016715458643
0.03232746179359597
0.03310971612776009
0.03372658745543954
0.03393874981688999
0.03347099666187594
0.03221525160647622
0.023679186780708718
0.015143121954941219
0.00660705712917372
-0.0019290076965937791
0.01449259574997042
0.02303893137746513
0.029666928307044788
0.038613593040335355
0.047316532582847924
0.054817969947868014
0.0605948157644457
0.06486387903861623
0.06747815332363893
0.0683338888616009
0.06734941585483026
0.06414536857209355
0.05866306440455868
0.051220903456857564
0.04248217097769008
0.033343452441251274
0.02472038921632326
0.01746133472936844
0.012416266289867703
0.010103290364061754
0.010326658047470242
0.012446724645926534
0.015421014611616265
0.018205482731918732
0.020212080247751032
0.021140490538957765
0.020956789218206047
0.019925502095943154
0.018501322073170158
0.01713839181651516
0.016308184273189433
0.015998088990253914
0.015718726712157002
0.015581653139594406
0.015190364836068821
0.014011658346137365
0.011983351440437764
0.009015353300195579
0.005730587320752384
0.004140936761326606
0.004855205044279254
0.0077932856372840194
0.01276694999702745
0.017670361707158244
0.02192431836313148
0.025457060745988764
0.027641031764499797
0.028999113209330872
0.029917403449452942
0.030424147380529613
0.03080880842017983
0.031161199015370778
0.031562609838982694
0.03206416251332829
0.03275828874311046
0.033437501768261026
0.033919587403969845
0.03407042511137564
0.0336847730953252
0.032670360971548844
0.024140366554676326
0.015610372137803807
0.007080377720931289
-0.001449616695941229
0.006980698200663298
0.011003332116266973
0.012360379875782675
0.018522008921724956
0.02487741626541649
0.030936574388192292
0.03686726419981955
0.04246091504950519
0.047431026378837095
0.0517892185777876
0.055358459154054386
0.05722549177337604
0.05635904014713285
0.05217056961624461
0.044974534372588866
0.03607657833267553
0.02694164214117973
0.01866246114841879
0.01218451577526427
0.00834489268013443
0.00722968533766149
0.008581816219847818
0.011680642555653173
0.015390838735820067
0.018881468565417843
0.021453824148601298
0.022698046676620866
0.022444322350189894
0.02114424054075308
0.01952632223692366
0.018203819110668762
0.017522281827943954
0.01737532984817771
0.01744415646301785
0.017245724007248577
0.016295047126501355
0.014274778169961984
0.011232191639299402
0.00803002931977183
0.005788860997936846
0.005804795427387403
0.008363737721050141
0.013939225381121807
0.02060527036889387
0.02600968047127691
0.02972456924164565
0.030618715125373726
0.030109815294456686
0.029370158443984034
0.029090682702625617
0.02931154076489351
0.029677803343036446
0.03042369411636022
0.03117171943308919
0.031979623163925684
0.03282178531279879
0.03354682994033926
0.03381772260760227
0.033300837852230786
0.031865011037791414
0.023325302130007594
0.014785593222223774
0.006245884314439953
-0.002293824593343867
0.006705922542083025
0.010984301875516647
0.012899371637231379
0.019716939867713727
0.026293110102947582
0.03250731334081379
0.038471730251360414
0.04400414983849263
0.04882942777599593
0.05295510501317004
0.056215118784370605
0.05773512578562703
0.05655096749425002
0.05213515458585554
0.04482690973461165
0.03590496672747646
0.026793754275695355
0.018566559812684576
0.012173642450071792
0.00843569525124932
0.0074160652369533965
0.008832729509666416
0.011931823761806204
0.015580161422358017
0.01896975971553433
0.021429451143153515
0.022573552694652884
0.02226241411005667
0.020948766974067733
0.01934455786192925
0.01805722754025731
0.017405517388043565
0.0172498459906382
0.01730197961815525
0.017085563949421373
0.01611261591804359
0.014088476508946646
0.011053486174412187
0.007842815923557189
0.005636023189928993
0.005706188356921176
0.00829778518590006
0.01383539927200449
0.020380498939058335
0.025694026800913088
0.029390657253405915
0.030381111149156648
0.030022524809888235
0.029406701189897206
0.02917852194187865
0.029402601933704184
0.02975861498316913
0.030483140212983695
0.031220488187318554
0.03202691563858628
0.032862538150480604
0.03357278995484657
0.03383495148319323
0.033323543733085624
0.03191124929371754
0.023372037876667164
0.01483282645961679
0.006293615042566415
-0.00224559637448396
0.006759381014168227
0.0114954058296633
0.01430038684308536
0.0218258021296961
0.028730200166161398
0.03517583269317428
0.04117604725821093
0.04659225354117864
0.0511669113995783
0.05489899502768654
0.057638886664425695
0.05857643386177448
0.05685982301567651
0.05206419366504319
0.04457006771772023
0.03561065823164813
0.026543293673399585
0.01841003783072396
0.01216601260243031
0.008600378634003491
0.007740220114440453
0.009260914257761437
0.012355994876564408
0.01589945683936298
0.019119032897471813
0.02138953686761355
0.02236636448589944
0.021960317977251922
0.020625696705683687
0.019045830660358098
0.01781702272805784
0.017213843710588744
0.01704346539094635
0.01706845817652436
0.016823512789891946
0.01581595116049483
0.013787544782533283
0.010765891865143437
0.007542335601401898
0.005396197606989902
0.005554124401102674
0.00819679841705687
0.013669284126263222
0.020011671440781826
0.02517689389296992
0.028844971933492357
0.02999440854944492
0.029880362731537703
0.02946892731196779
0.029327835757917455
0.029560151202901463
0.029902176379903982
0.030589860603075465
0.031306924840158144
0.032108566239254795
0.03293158966223226
0.03361641210894293
0.03386414508577374
0.03336318681710937
0.03199228269070277
0.02345389974885707
0.014915516807011371
0.006377133865165672
-0.0021612490766800274
0.010272338371237939
0.01698416777400247
0.02236605323091031
0.030645276802487034
0.03857023559879221
0.045674320537961915
0.05163210166184538
0.05648258597183786
0.060028528404845814
0.06222115927727425
0.06295606513458357
0.061659450940654434
0.057908002868173686
0.05167405427313236
0.04349311072803945
0.0344196012799505
0.025564595802427915
0.01786256601336162
0.012242704296021286
0.009349815970327881
0.00908664867664673
0.010958934511899821
0.014002587481335635
0.017137447464988853
0.01970249224499553
0.02124773982164248
0.02159215708584519
0.02083835568800912
0.019443032743497676
0.017971128680729205
0.016961035761341583
0.016526900684232845
0.016298886443842996
0.016229820183530884
0.01589397129337617
0.014780630785027773
0.012751400921754854
0.009773964699068449
0.006503755804142011
0.004628946740278776
0.005095981663782028
0.00790586759969066
0.013123874148661976
0.018689765788289354
0.02333322131380867
0.026914408449191775
0.028642786772841922
0.029379432988644257
0.029712102495589744
0.02991512110603795
0.030210218668745834
0.030534744822604952
0.031072111869179332
0.0316868953796601
0.03244542315846081
0.0332021345384417
0.03378231222118983
0.03397673132564955
0.033529487496244945
0.03233803261672721
0.02380339618476477
0.015268759752802334
0.006734123320839898
-0.0018005131111225384
0.017647657324427118
0.02751731962380355
0.034807346719175784
0.044301456255663285
0.053554912246622746
0.061294364721313346
0.06690127344667572
0.0707322967596147
0.07267663551662173
0.07258525886504313
0.0703868506327892
0.06583776026363286
0.059136730275242785
0.05085135119237923
0.04173252671071651
0.03256279382842197
0.024128337205383543
0.01721373450896979
0.012586995242775874
0.010682174397057249
0.01123396174091643
0.013505328608361844
0.016424048760361572
0.018962680026522762
0.020576894785342574
0.021072346660850564
0.020522829835227
0.019306103758128832
0.01787328303331953
0.01659564697090595
0.015888743931503677
0.0156555672008653
0.015338520556162253
0.015160074076061073
0.014741424662208529
0.013525352735704968
0.011488713635963476
0.00850584388628302
0.0053321460120651564
0.003973837407087178
0.004863051492369987
0.007890637362863924
0.012570228124939294
0.01700863357643854
0.021017332695723784
0.02452874646106408
0.02701262254933521
0.0287537016325271
0.030057668796375378
0.03078241720083492
0.03124808290561089
0.0316419874161461
0.031945138143539824
0.03235506844855209
0.03299044621836872
0.03360452855604164
0.03401292643877567
0.03413401357308624
0.03379990071386422
0.03292239166497726
0.024396677656442253
0.015870963647907244
0.007345249639372234
-0.0011804643691627759
0.02427685399283741
0.03702692680638661
0.045706062023446334
0.05662921897893467
0.06717143220485151
0.07541452246533309
0.08061931696927192
0.08347656905589321
0.08395684107556808
0.08179586381212603
0.07693613301247343
0.06943493954742905
0.060059394938167726
0.04994206754540747
0.040019719501510925
0.030817496629143015
0.022860062863886015
0.0167671381012926
0.013077542970905673
0.012058514783436815
0.013286244499530227
0.01583955025522928
0.01862833556103424
0.02063352675147401
0.021392326176864672
0.020944348939978378
0.019610972634525183
0.018015834000099377
0.016595263167133084
0.01552694279557197
0.01508109309930518
0.014987980643679412
0.01458347212776465
0.014332488510461
0.013886685238982087
0.012600642906496205
0.010495891137030464
0.007468518283151268
0.00494848811056741
0.004179871755690207
0.005478158563581597
0.008653634453274378
0.012278425783538261
0.015714400815396132
0.01926593180652855
0.022763932966419043
0.025844632976483976
0.02827519356845707
0.030347581008892413
0.03155696144076147
0.032245625537374076
0.03278765879922373
0.03287232484715666
0.03305345837563348
0.03352638346923961
0.03397041700410055
0.034205593508885405
0.03426478443793057
0.03406618666171935
0.03352120407357137
0.025007871889274128
0.016494539704976885
0.007981207520679642
-0.0005321246636176002
0.011427820945817532
0.01866195097003079
0.02446823411153915
0.03292814529035848
0.04108088335987148
0.04831055338439258
0.05422601226697989
0.05891503524467932
0.06219482743084458
0.06400190577870969
0.06423964090469284
0.06239095756581055
0.05813809971944334
0.051552778970380034
0.043207918267614456
0.0341127469770612
0.025320339293275353
0.01774025498739398
0.012283846774808135
0.009558670755380173
0.009438712526530724
0.011387208216751835
0.014412390984869492
0.0174457451453053
0.019848991239261118
0.021215407952855255
0.021405845320404515
0.020569942819370652
0.019164185877584103
0.017722309144907866
0.016764906941249574
0.016368531216653565
0.016125887181662617
0.016035991668123764
0.01568205025112063
0.014547897039912744
0.012519708077628396
0.009548501940620551
0.006267301474083236
0.004469809935958012
0.005009054829145211
0.007856495358506506
0.013010686688225505
0.018384711092178395
0.022910284526139066
0.026475145243804163
0.02833904641513125
0.029265233288663615
0.02977208482916675
0.03006221822026848
0.030380011866339478
0.030708702762544508
0.031207263746855535
0.03179148634608054
0.032533807835212016
0.033269971697076656
0.033822565657309143
0.034004205415937246
0.033573360157863996
0.03243099646743251
0.023897540883489065
0.015364085299545617
0.006830629715602169
-0.001702825868341279
0.009405683223006264
0.015705164784867238
0.020691557222248223
0.028832017167644886
0.03657014182392507
0.043564912375820386
0.049549122111498846
0.05452417542955611
0.05828120630862374
0.06078250467860612
0.061916556717897295
0.06106360372581676
0.057715446049058844
0.051764958136273305
0.04371731920806209
0.034662990481050954
0.025760485526272216
0.017964566988147003
0.012215521787598787
0.00918810237053159
0.008808519817449748
0.010616661493747901
0.013673875927610019
0.01689026972225589
0.019585385644528178
0.021274492499535926
0.02174331551071124
0.021056572366479433
0.019670908172269446
0.018175803874785023
0.017122986232378023
0.016657379108458614
0.016440998202831947
0.016389357227214494
0.016069280965580336
0.014974009418880295
0.012943927479662698
0.009959744248495335
0.006698995264297687
0.0047650920454870346
0.005173271235154421
0.007952328389574987
0.013220892870047107
0.018940975223203756
0.02368227470710451
0.027278005616347502
0.028895310130678076
0.029473797594858943
0.02966371329197542
0.029797264841208034
0.030076117758394073
0.030399678786785025
0.030967828828399806
0.0316057524866332
0.032375781556861216
0.03314784661292666
0.03374970129968108
0.033954492990592715
0.033494941091911805
0.032265354940863876
0.02372985603238383
0.015194357123903782
0.0066588582154237345
-0.0018766406930563126
0.010039041046599563
0.012956210884989194
0.01094791976613382
0.013082575293034969
0.01746213007587287
0.022248395562209932
0.027727598663475548
0.033519762830595524
0.039244460442735
0.044912584122870344
0.05026044953656992
0.05413688727860396
0.05511837874722069
0.05226311376724867
0.045739999319194556
0.037007516461243464
0.02777239561904767
0.019254315124841884
0.012355776849823195
0.00795067703436221
0.006277680885034101
0.007218656985281474
0.01026142388559646
0.014312972266371656
0.018381390998590603
0.02160386047611614
0.02343433966792473
0.02352637548394784
0.022321424492050376
0.02063650128547293
0.0191057176138464
0.0182375424965272
0.018140766773561138
0.018314019928434826
0.018234756891806606
0.017441095964907883
0.015470246893878504
0.01239980439530959
0.009273585406502373
0.006855711735284449
0.0065215726213727525
0.008847259188990386
0.014614168612923202
0.021985483068714874
0.02795509894980297
0.031795460166307875
0.03210846572599096
0.030659105771655863
0.029171756944682575
0.028604891476066478
0.02883297904957478
0.029287452249652304
0.03014648041557838
0.030933258583426694
0.03172790996293366
0.03259317508073009
0.033398905366592575
0.03372298007805824
0.033186239645660406
0.0316317470857434
0.023088426233543215
0.01454510538134303
0.006001784529142844
-0.002541536323057342
0.006749550638386402
0.010976375471700219
0.012782731613488509
0.019477095813129966
0.026011448734121596
0.032196161558795997
0.03815470658766144
0.0436997089477558
0.04855384426707799
0.052725524044854075
0.05604659426708627
0.057635075190314564
0.056513576467158384
0.05214255865754031
0.04485636661741919
0.035939056341660475
0.026823019151572747
0.018585327687316525
0.012175401143293125
0.008417327217072751
0.007378868786308912
0.008782951264373904
0.011882162056879256
0.015542747441108529
0.01895229899376618
0.02143422514029095
0.02259805518709557
0.022298193561848922
0.020987159129005308
0.01938019739504563
0.018085945083378532
0.01742840396225898
0.017274455321157685
0.01732985175838605
0.0171169257313549
0.016148271328636974
0.014124810428316772
0.011088291086834857
0.007879238659111394
0.005665561936773172
0.005725148038663897
0.008310443002936308
0.013855596857223871
0.02042454900133706
0.025755858730720112
0.02945601693754761
0.030427561614562264
0.030039590873565357
0.029399454988775196
0.029161118327121874
0.02938446192639419
0.029742383401315325
0.03047116059854704
0.031210700640000304
0.03201750207801255
0.03285447266780289
0.03356766433201507
0.0338315402107634
0.03331900678343002
0.03190200145005793
0.023362692609854938
0.014823383769651949
0.006284074929448959
-0.00225523391075403
0.013509830239074962
0.021641796216319314
0.02803711078824791
0.03682447442531171
0.04535549174676314
0.0527763419120759
0.058601039832040305
0.06300460368511623
0.06582875130492752
0.06698294937713145
0.06638140719305198
0.06360180611632253
0.058504321195827526
0.0513296550316562
0.04271302275482731
0.03358653769077445
0.024908121165509008
0.01754545471363099
0.012370257671133825
0.009928211979041696
0.010045366160556913
0.012113935153652016
0.015104853343476592
0.01796717191219797
0.02009787048769163
0.02116327384945884
0.02109614234889464
0.020125109636121415
0.018705623585254613
0.017317191761319194
0.016447476634115644
0.01611132679554604