# vtk DataFile Version 3.0
vtk output
ASCII
DATASET POLYDATA
POINTS 5568 float
0.0 0.0 0.0
-0.013356254083525587 0.15011095812564934 0.9885789350008707
-0.06256985205771193 0.2941476494595792 1.976926775249439
-0.15367819780243108 0.43772315948183604 2.962363400435204
-0.29349361620434666 0.5841177990474401 3.9416591975688147
-0.4870701552191886 0.7335061376642869 4.911304105681229
-0.7390826700907015 0.8849848422485911 5.867099007532875
-1.0532660429940253 1.0376402530968565 6.804107616740836
-1.4322032043376196 1.1908401067535626 7.7167611285362065
-1.8757708597455132 1.3442662161083136 8.599771980136689
-2.3800622389900337 1.497895498598481 9.44952973878395
-2.9384729332365533 1.6516874137891406 10.264714100369174
-3.5428611860894126 1.8052593788709914 11.046462455886708
-4.184415301997853 1.9576500901683043 11.798250582602765
-4.854255474643906 2.1070794270077653 12.525564143868623
-5.544268805466633 2.250909211149123 13.234926249200432
-6.247175657524478 2.3862664346330194 13.93321013085664
-6.956358493899231 2.510681496572217 14.627170213969586
-7.665964321343989 2.6224071100425617 15.322854737982528
-8.371139194486691 2.7202030021983523 16.025111359001958
-9.06801752813037 2.803088928672614 16.737495041641107
-9.753433699529136 2.8705364266685365 17.462516080645596
-10.42462039652743 2.922242185204758 18.201998962331654
-11.079167998209826 2.9581156018247627 18.957168171921023
-11.715027159547581 2.978625372934326 19.728700722259557
-12.330650521442633 2.985151099556642 20.516714231776422
-12.925228355704725 2.980409831280749 21.32073831063186
-13.498855763566452 2.968732050913335 22.13977141521038
-14.052641746848884 2.955173755673491 22.972320066851893
-14.588455928753184 2.9442984912417405 23.816585955712604
-15.108060657290821 2.9400195921355445 24.67098200972021
-15.61295121963671 2.9455658462736993 25.534147555324925
-16.104322941425334 2.9635028965330674 26.404912789618574
-16.58338031078306 2.9958424783097035 27.282100448169793
-17.051623696611582 3.0438266411643298 28.164396119553817
-17.511905609091684 3.105799508327019 29.050003213461324
-17.96793071987731 3.1789290833473682 29.936960463609434
-18.421537394691363 3.2611605661191243 30.824360580696027
-18.873846821676235 3.350120027861485 31.711773898393663
-19.325359039836478 3.4423129734288267 32.599263153336864
-19.77649783446693 3.5338035097744056 33.48701495972116
-20.227186890446838 3.6206170584161574 34.37546461085068
-20.676795595592413 3.698527010871107 35.26528597020647
-21.124016763359695 3.7609086839811257 36.15753131424636
-21.567592479616355 3.801820840403084 37.052833933143624
-22.00488575083502 3.8168383418187997 37.95202749940069
-22.432760912779038 3.804055909846899 38.855774950420205
-22.848742066066485 3.7642520692882604 39.76427664793454
-23.25058325950657 3.699811218422581 40.67771577124509
-23.634946206506687 3.6132293677430383 41.59682877197258
-23.99771562977051 3.5077256367303917 42.522716080605356
-24.334559241962886 3.3880472967686375 43.456639779774186
-24.64230038386916 3.260100669372635 44.399467998548005
-24.918762236825376 3.1292447522143965 45.35154235110913
-25.162848381644302 3.0002849795952757 46.312682991678166
-25.374671045543508 2.877074971747688 47.282193410923284
-25.554876386146578 2.762509996307105 48.25912785172289
-25.704128356235117 2.6592596989937443 49.24252158036335
-25.822911702531947 2.570142361831204 50.23143442630054
-25.91211563607504 2.4977386908097627 51.224812685909164
-25.973116480534557 2.4439975067548643 52.22150259862605
-26.007783190237454 2.409982288227548 53.22032249437649
-26.01844872092997 2.395806792320637 54.22016513288059
-26.008229646210847 2.4006937849796994 55.220100974729775
0.0 0.0 0.0
-0.16784751714949186 0.3300501744750313 0.928920929528317
-0.40768578645296105 0.6585094432203886 1.8424810607472648
-0.7187487119818281 0.9899110272432438 2.733218309585869
-1.1020802327223356 1.325718627322662 3.593619495623912
-1.5567079069611776 1.6623184510848283 4.418249252823747
-2.081112264353876 1.9940136787032168 5.2024548036347165
-2.6721212141764425 2.3159947738741646 5.942074027007219
-3.32465820128262 2.625287929811872 6.6338349858278844
-4.031439345117209 2.9206855636973064 7.276641840656578
-4.78332939663019 3.2023394199674513 7.872739530371915
-5.570672582618487 3.470862147435592 8.427704621446003
-6.384368834114048 3.7267197609975993 8.949657964077725
-7.216208293101853 3.9702331147096688 9.448400744511464
-8.059037737119606 4.201115385711191 9.934540544603891
-8.907209947274678 4.417935544492804 10.417855059869652
-9.755970441272277 4.6183972543951395 10.907161432903953
-10.600607444606359 4.799822556636574 11.410821231086642
-11.436166003595963 4.959700008305545 11.936445712011048
-12.257786970706306 5.095967576775908 12.48995283589279
-13.061155050865702 5.207184710682932 13.074957516990738
-13.84259118743721 5.293004901272042 13.693012902330471
-14.598984165013736 5.353839132458396 14.344295375447075
-15.328097860992534 5.3907324795190386 15.027692843454382
-16.028885697804483 5.405799443968426 15.74090346757513
-16.70189184884312 5.402652561031398 16.480533657461905
-17.349302711489848 5.38674320724833 17.24250876689083
-17.97442280426473 5.365295470382208 18.02274261913799
-18.58073225963271 5.345678840424888 18.817729431708173
-19.171106399161214 5.33427867144473 19.624778631895623
-19.74708234043699 5.336975032888315 20.442240829618825
-20.309529279163545 5.358982297558816 21.268781283207666
-20.859211552354097 5.403793650071997 22.102952333548064
-21.397244295319407 5.4722369011104215 22.94309296992064
-21.925455289779595 5.56166971558246 23.7874832333812
-22.447401735631683 5.6644251575796245 24.63424956880222
-22.966780276913763 5.774251989584565 25.4817069410797
-23.485046606881458 5.887729670620161 26.329364199131916
-24.003066724926267 6.002058721167793 27.17705755495212
-24.521100703382533 6.113048102914361 28.02518617391524
-25.039728606611394 6.2129573554296735 28.874328823447264
-25.559135493959907 6.291030203604682 29.725281886637458
-26.07832339187482 6.338867031786139 30.57860220429562
-26.594599696264883 6.349947449030733 31.43495260096688
-27.104933594500654 6.321184459268799 32.29444780324054
-27.604445064042576 6.251480435106089 33.157946292417904
-28.088587091188977 6.1470947190342 34.02668682895959
-28.554915945284655 6.01479401811186 34.90134900624478
-29.00171498657067 5.860300050283294 35.78254264592364
-29.42552145433178 5.688648690357866 36.67188166368886
-29.822062007209237 5.504567073509088 37.57125341567019
-30.187896074476992 5.314054328658409 38.48222560474942
-30.52157789853907 5.123144962375461 39.4053778425499
-30.822617478522023 4.936530397385134 40.3405517169803
-31.09112939060648 4.757749598012067 41.287092143398674
-31.328181133710743 4.589405911096832 42.243892474798606
-31.535506765085906 4.433218507880943 43.20961581906008
-31.71492000739228 4.290788565559696 44.183024571853835
-31.86789013324891 4.163843238611304 45.16306795077202
-31.99563635279509 4.054402559367325 46.14881824426337
-32.099605919933786 3.9638489026679586 47.13926782115629
-32.181684286563325 3.892443862604763 48.133332437760764
-32.2440239323996 3.839454975805195 49.12997979085651
-32.2891030056675 3.8033573647075487 50.12831081793438
0.0 0.0 0.0
-0.033054751453361675 0.17350191347844857 0.9842786543584461
-0.10691390547703417 0.3418811845449158 1.9672299483918954
-0.22688864905509598 0.5106506370817838 2.945556546616529
-0.39920257789221647 0.682877922877541 3.9154254408265365
-0.6282684138482189 0.8582194417476515 4.872913923555233
-0.9181001246354038 1.0351039545617993 5.813503870635614
-1.2716890259457665 1.2120628829282012 6.73201376527015
-1.6907013676707023 1.3880806266836165 7.622769854985757
-2.1739934523868643 1.5626102008590097 8.480655738182852
-2.716685160849152 1.7355116499786307 9.302599044292599
-3.3113435149947703 1.9066735201068612 10.088146659691583
-3.949259682038023 2.0756775377671413 10.839479213118844
-4.621324595077813 2.241608939565423 11.561140853056894
-5.3186105242592046 2.402795144504252 12.259575775081174
-6.03318958713973 2.5567221066149455 12.94198566160698
-6.758089179081724 2.700629660793637 13.615640764350688
-7.48699879784993 2.8321257928337316 14.287503499532274
-8.21430015605519 2.9495048474153096 14.963709749058497
-8.935290942387399 3.051556335190466 15.649098529143888
-9.646206159479148 3.137347956116893 16.347123852385252
-10.343955256292977 3.2064444655826048 17.060125865198078
-11.025838230051706 3.258669817322798 17.789720357182198
-11.689546276443924 3.2940885617328584 18.536873046863924
-12.333199796096563 3.313368312785448 19.301947185649258
-12.955522579811477 3.318146922191603 20.084693324420613
-13.556069045713427 3.3114658201157665 20.884255270218265
-14.135333489591572 3.298032306346452 21.699284254222118
-14.694753751202068 3.283240719968272 22.528036436645827
-15.236388522238492 3.2719117233113453 23.368574019766932
-15.762031420793381 3.2681584740575085 24.219271061209334
-16.273130208219914 3.2753622016977997 25.078762850465758
-16.770829204056167 3.29614222532212 25.9458637097444
-17.256307218058684 3.332383870693415 26.81936107153833
-17.731081583735115 3.384939582772755 27.697898036511564
-18.19808095939557 3.4514666351112337 28.57964955164488
-18.66103153614359 3.5286539915090542 29.46266646852756
-19.121739503408783 3.614200247140529 30.34608596516877
-19.581305122333745 3.7056079547141008 31.22951342280084
-20.040188025696573 3.799378696026544 32.11304810184576
-20.498795237748965 3.8914959384084 32.99689980813449
-20.957050383346253 3.977534793157522 33.88154636863595
-21.414283622361662 4.052799151469278 34.76770269880992
-21.869062468009705 4.110437330707019 35.656440028871614
-22.319949509202296 4.1446280792495145 36.54836596122177
-22.76404929856503 4.151218883090187 37.44431905061469
-23.198020263976176 4.129190136825352 38.34497655239775
-23.61935121083539 4.0800077083089805 39.250548924957755
-24.025843285767415 4.006481891056322 40.16123995226327
[...]
CELL_DATA 87
SCALARS quad_param_group int 1
LOOKUP_TABLE default
3
3
3
3
0
1
2
3
1
0
0
0
1
0
0
0
1
1
1
3
2
0
1
2
2
0
0
2
2
1
2
3
3
2
0
0
1
1
1
2
0
3
3
2
3
0
0
3
3
3
2
1
3
2
2
2
2
2
2
2
1
1
0
1
3
3
3
2
3
2
3
3
0
0
3
1
1
3
1
1
0
0
0
1
2
1
1
SCALARS single_component_feature float 1
LOOKUP_TABLE default
-0.24412011350044094
-0.54746537660127
-0.27808411499745767
-0.135718131270972
0.30301211408132667
0.2304765873345383
-0.38973757485191995
0.08127944887837615
0.32437679204211345
0.09164726564565645
0.38349794528275755
0.3582453063128513
0.41663906496765774
0.10174361341034438
0.2873875455080988
0.46088266205616996
0.4348161325146146
-0.027789163839929104
0.462919225536217
-0.21250216285569323
-0.6288880048327574
0.05048654398313123
-0.11139837226065966
-0.2920575221567647
-0.19964641461326624
0.48035557458291495
0.5730186671629008
-0.4055504132886405
-0.5745485365563984
0.03700136369964907
-0.07810820402328641
-0.24451147037418064
-0.06137099605936845
-0.14900732571473127
-0.0495196401326922
0.5521624462978217
0.5401529039538149
0.07748366013317368
0.028173968892122328
-0.3708264969598493
-0.30618265575573306
0.022757031373927136
-0.15149752247580797
-0.49080379394868706
-0.2982809685769858
0.028395430835601698
-0.00740742441381672
0.00885026704694128
-0.058928238828734665
-0.13433344768352984
-0.08047943351988948
0.11242992371771046
0.2778942782535824
-0.0702516032663294
-0.054632778493079674
-0.31828169028347963
-0.2623332320167949
-0.18209986430372174
-0.5031945342803879
-0.44669211500113726
0.5877629362690582
0.6966337520672317
0.5970783013628614
0.5251357525598345
0.02652764521951876
0.0746602906531797
-0.32538505296808656
-0.5655265967440368
-0.06770366163640398
0.03426725214585204
-0.11305617022156646
-0.14839828332093832
0.3350813075747836
0.2677830176235349
0.03834546806283913
-0.005978692909065206
-0.10854524039351272
-0.004677870168803139
-0.018032174948033382
0.15676771246054866
0.16955445723020435
-0.05993130542638012
0.08277564420019937
-0.5407290937528535
-0.06186938651599778
0.06609520203477949
0.0015283637756312671
POINT_DATA 5568
SCALARS single_curvature float 1
LOOKUP_TABLE default
0.031866864131474215
0.0455166858256819
0.05142804127725004
0.05714476711520063
0.06212314173023858
0.06620064834708655
0.0684721026621683
0.06828885847840974
0.06522358239665432
0.05941612320334702
0.05152146874341477
0.04238885299943729
0.03294369251771741
0.02434965394017921
0.01817690259235278
0.015290385487699848
0.015502372486174703
0.01792004651979463
0.021134905742640438
0.024079459975129797
0.026418772669608
0.028066910817188997
0.028832172923328844
0.02855140791945705
0.027271176337859304
0.025276235732884823
0.02314724225072084
0.021412942057855662
0.020356025779247323
0.019952968409252172
0.019820930050520266
0.018992773263107828
0.01703527471805545
0.01439116372997543
0.01118182167472021
0.00790687313982529
0.005112150863284956
0.003942690028578497
0.004497985660389664
0.0076391119088884026
0.012926373427851702
0.018468974781339912
0.023623364574887097
0.027122140740255568
0.028830856242957056
0.029291556897301833
0.029240665486439107
0.029419814256804816
0.030095275487992946
0.031087339438424618
0.0321297318497672
0.03292923611646518
0.03344614297872191
0.03365502662749916
0.033745558685478245
0.033856203055190506
0.03394912629543755
0.03379641620250841
0.033077265333781636
0.03158172400332687
0.023094241614080226
0.01460675922483358
0.006119276835586933
-0.0023682055536597135
0.05664346612251569
0.07648131956856526
0.07825689456499005
0.0797162092367352
0.07983370204434402
0.07849685032597496
0.07492135979635092
0.0687471559897049
0.06007681804704975
0.04951167630562399
0.03818810432032411
0.0280641056889673
0.021403937902523294
0.019468646020117327
0.02224784986837667
0.02819182556588347
0.0348724071279777
0.040587493244546476
0.04469064872752789
0.047023877538083715
0.047613796771740546
0.04645356340526792
0.043402089262864714
0.03863248087639245
0.032997136147951536
0.027795068726761078
0.02439525595823551
0.023377149245708252
0.024188716897162843
0.025539116930239344
0.02575862699124358
0.02317225823596636
0.01825751816729072
0.012461182477519935
0.006793803899389417
0.0039078511992287224
0.004804652673727315
0.009329949118390909
0.01668838521367481
0.025090062168010147
0.03239806716418297
0.037542413419345486
0.03953002654874873
0.03869263624251692
0.036164622109858845
0.032991601161298276
0.03132045958784695
0.031272814937576214
0.032298529130369714
0.03360339186565361
0.03453570739816604
0.034847476192774965
0.034584895855679004
0.03383707025448704
0.03284298076212577
0.031976937509154334
0.031326467876257244
0.030640979838409296
0.029583712155544697
0.02783076900510446
0.020154451727414015
0.01247813444972357
0.004801817172033124
-0.0028745001056573218
0.03513191805023009
0.04964189875524266
0.055107318618273865
0.06036417743018884
0.06482566650408743
0.0683149665291506
0.06989376108258852
0.0688991400899977
0.06495351356086011
0.05827052221420277
0.049596781251416935
0.03992396920723777
0.030351779540847265
0.022316051506591265
0.01738018416152539
0.015950960581586352
0.017471983468314682
0.02068070431649801
0.024086505787420064
0.02693398654792423
0.029041862529299682
0.030355077257313273
0.030683275027669515
0.02988730971261906
0.028089158784783946
0.025678715844125916
0.023330723570053672
0.021597113958642493
0.02069061161742595
0.020467056472642638
0.020404020165221838
0.01942624109993914
0.01716129437347739
0.014148193006089741
0.010603852573050092
0.007142527995918152
0.004700852365553829
0.004069971108012431
0.0053088871212158785
0.009188600548152404
0.014756133631163135
0.020395116102168844
0.02534008676231473
0.02842956879358528
0.0296742477663402
0.029695303415355083
0.029416526020280217
0.029534147778588118
0.030243558155553973
0.03129958818812543
0.03237902527460127
0.03317522042427538
0.03364125775211955
0.03376336529904026
0.033741281556422566
0.033747586579438646
0.03376140235643642
0.03355092831316744
0.03278967068684741
0.031253716941780973
0.022828911780857265
0.014404106619933556
0.005979301459009847
-0.002445503701913862
0.021187041899254945
0.0319466173850128
0.03909440194977971
0.04621702002373978
0.05270339646318448
0.05842785732872672
0.06268908153306772
0.06503025838667552
0.06497719148353315
0.06246840490471313
0.057806289468258686
0.05129056790778649
0.04334711045914163
0.0345689262761019
0.025844452145389808
0.018416463208465107
0.0135819948196384
0.011727743571028949
0.012515772367389134
0.014979681629009135
0.017847326880895818
0.020487575877261518
0.02259049807247497
0.02391739270232431
0.02430674825246523
0.023733788880001817
0.02246925170186539
0.02092213155713585
0.01953345659494993
0.01860551571398416
0.01818330748706005
0.01770433629283316
0.01663878097251838
0.01516875501850536
0.013138769810818731
0.010626872940946339
0.007822864143750552
0.005140211544440779
0.003717490026118357
0.004575239972525692
0.007944705605180773
0.01295765572226651
0.018467121868408293
0.023052523854400556
0.026155206599561987
0.028030987920674162
0.0287765860053076
0.029217469161954192
0.029794614833723497
0.030523449292908282
0.03134386622041921
0.03204439435957181
0.03264238945110025
0.03307810766803489
0.033498600633414186
0.033919967008206806
0.03424586673905682
0.03426324225082255
0.033677792579115004
0.032326660116312446
0.02372135442207504
0.015116048727837637
0.006510743033600233
-0.002094562660637171
0.02309030839874928
0.025467850836194805
0.018268731045580733
0.01880900216463562
0.02572345740335192
0.03383127580766391
0.039365006629456904
0.044019611110825536
0.04875901390730118
0.054281052168258556
0.06069007594619343
0.06702983547777483
0.07219826504744205
0.07518579468258618
0.07532051075993876
0.07256684556742135
0.06724073151439211
0.05982296076141375
0.05094870116538841
0.041343347698668514
0.03165704142898466
0.022411437688824105
0.014954869766889044
0.011290992332924509
0.011452795978329669
0.014759458354034818
0.019192075623710118
0.02196142500470594
0.022373468121646357
0.02054059683278029
0.017581958550941364
0.015564442775229613
0.015393890613895603
0.01737448249721789
0.021033246950099917
0.024499973847239172
0.026553092076168013
0.026599411924845755
0.02393235162766564
0.018184397840401816
0.011729936309648638
0.007355692489366159
0.007202575862633592
0.011495586376025619
0.01801921490814267
0.024436396825709212
0.028589464108873294
0.030737939225584626
0.031096343105631072
0.03006138162389229
0.028566574787798383
0.027236871865159554
0.026783781327369166
0.02711036866931386
0.02808256715777117
0.029133253288112098
0.02990108295348107
0.030230692374501017
0.030017376054009306
0.029287207864755388
0.021728454046164008
0.014169700227572628
0.006610946408981248
-0.0009478074096101324
0.01817216348955372
0.02083051624862639
0.015984860492032696
0.018338928135521154
0.026814740124067996
0.03526754703614262
0.04141194026084128
0.04667923783243514
0.05184971258054211
0.057483593894496914
0.063560639441694
0.06898425608870169
0.07255709178244255
0.0733191188316072
0.07084603260676267
0.06552266671367825
0.05812103673014107
0.04946722984928473
0.04031505326371599
0.03127470390269817
0.022798494851177586
0.015490951604497224
0.01099671951826501
0.009978957378679558
0.01201549999068503
0.016021301161085966
0.01958709076943849
0.021329795466001927
0.021111406193650317
0.01927332762055289
0.01687775228319
0.015458095746055755
0.015504347609679303
0.017158463823727682
0.019874927904665707
0.022104166948341938
0.022902278830495972
0.02184026367977553
0.018647860537518445
0.013397949634898751
0.008739959869235541
0.006283057135878865
0.007681136633826208
0.01272801241799835
0.018848702081942455
0.024708301969315255
0.02836431360232727
0.030209601063230077
0.03058542178188631
0.02987893402809146
0.028868360335526578
0.028008594633325085
0.02786298583351762
0.028325488840703416
0.02930965658123262
0.030338599022575952
0.03109317062744214
0.03141324082187296
0.031161858068402867
0.03034023495534725
0.022476793180164746
0.014613351404982242
0.0067499096297997385
-0.0011135321453827653
0.04510513017632776
0.06217911038247336
0.06612884923004517
0.06982250110927125
0.07248226467527008
0.07392092346579435
0.07319541146927272
0.06971031232243732
0.06329797184450367
0.05438811324323852
0.04395149346642603
0.03340803588001772
0.02455541109289614
0.019237869672549424
0.01817340639448884
0.020699897435046695
0.02520148791518123
0.029740270985950383
0.03337672961426286
0.035890536834193146
0.03727365711971778
0.03750001307475454
0.03638560223360223
0.033897671281637204
0.030438542901370002
0.026763486145878583
0.023845554283529236
0.02227563384825498
0.021985952526931106
0.022389679025680103
0.022493797146033445
0.02092334275167089
0.01758946009361899
0.013383615677575397
0.008852920242643185
0.005016865466888711
0.003854141530507107
0.005195357963699029
0.008855364489417391
0.015109796269571632
0.021519371763275702
0.0272140330182406
0.031173151961109577
0.032745667710053196
0.03242367637912161
0.031046387671549693
0.030101352586515126
0.030084631089206188
0.030915462891013476
0.03212488827051385
0.03322852679758306
0.03391216186811418
0.034137856644070465
0.033932388792776824
0.033519175547027207
0.03316862451437885
0.032910486113625986
0.03250280426354159
0.031608236272468566
0.029959369754583645
0.021803454674786775
0.013647539594989905
0.005491624515193035
-0.0026642905646038356
0.010894117965832444
0.016089874040027024
0.018025767357266492
0.025368446120593607
0.034366629505083866
0.04221379279536141
0.048596126365939414
0.054022681035759294
0.058643847826009794
0.06257920198960816
0.06564522135867648
0.06692201684101864
0.06561220053659642
0.06135684081325068
0.054441187931642085
0.045838368237515636
0.03667864719946644
0.027882277423031544
0.020080356002435046
0.01385479190628642
0.010027070263983882
0.008928498657091753
0.010300070441074761
0.013395317015614208
0.016812211847032157
0.01944057623917982
0.02075776230417368
0.020662875112471318
0.01950410430248839
0.01784284226100233
0.016443036846444416
0.015850010165468338
0.015886406265528216
0.016524598192917656
0.017247213536422026
0.01717386920994422
0.015917903222060017
0.013329845941865124
0.009763603967107945
0.006454626305534042
0.005221049062553132
0.006343633236237815
0.010453584937797637
0.016084237632112367
0.02129003174772549
0.025763097013457498
0.02827082162576439
0.029487097679787643
0.029919844469940962
0.02987005054021281
0.029770394258146423
0.029748105431171713
0.030089949710935582
0.030691216147379543
0.031569139857799966
0.03244959228755865
0.03310514678509097
0.03335769907040759
0.03299994023232665
0.031970290903338264
0.023603972481847122
0.01523765406035598
0.006871335638864839
-0.001494982782626303
0.024414681556861717
0.026859150803421786
0.01910011629536171
0.019215142507392934
0.025735407684677428
0.03363049741444448
0.038934896914733313
0.04336534028851178
0.04791974301449937
0.053320745323477574
0.05970427439901703
0.06617064874675815
0.07167562304025898
0.07523141789138134
0.07612359654277819
0.0741988269921606
0.06961781902689618
0.06272080699002487
0.05406787052484762
0.04439453835161325
0.03441383761776388
0.024696414477955408
0.01645273933078858
0.011985632670012071
0.011550612186879885
0.014539367605332943
0.019118680876819845
0.02218969748103322
0.022800044916782686
0.020977193261636464
0.01784455935842868
0.015630676943733362
0.01537216422388069
0.01742816086928979
0.021358150601244276
0.025198864075101867
0.027647626750639545
0.02806017190667289
0.02558669121757567
0.01971877022803236
0.012716846782019819
0.007759914549875253
0.00712842050355089
0.01117516948758429
0.017820811749399954
0.024390332425109046
0.02868045056559542
0.03091617789013271
0.0312704832924054
0.03013927473876282
0.028499546223769753
0.027026530862945854
0.026476138106952665
0.026755253608791548
0.02771651011715154
0.028767717475365783
0.02953558407401963
0.029865606660246825
0.029662081392416738
0.02895754002026176
0.02149275212606085
0.014027964231859938
0.006563176337659026
-0.0009016115565418856
0.011147716948660036
0.016114815330183514
0.017528534897073213
0.02455069786821445
0.033652614163546674
0.04156985864081641
0.04798135858705591
0.05345597055639752
0.05819128393380325
0.06233683385979832
0.06570889956278557
0.06735079341764129
0.06641405893842432
0.062485971516058045
0.055806761438137446
0.04733033439918849
0.03818789181088198
0.029310578750908017
0.02133221988282273
0.014783889529183362
0.010491419505437029
0.008945091242273726
0.009972344548516003
0.012924247901255244
0.016420554056043427
0.019202843250289366
0.020670486934347705
0.020683939290060575
0.01957080188888122
0.017888127880298237
0.016427190700270936
0.015796339519724614
0.015854489256443387
0.016577361615945745
0.01743871098774835
0.017511509271673987
0.016372242650458557
0.013855265083246152
0.010282624197062823
0.006791327605997612
0.0053288299505931105
0.006220353405789629
0.010167311004494327
0.015810924630440835
0.02109065626573065
0.025671742743535914
0.028263264530859596
0.02952221543713763
0.029949948322313028
0.029856490378855984
0.029699112660756852
0.029626077977958094
0.02994153066526817
0.030539789280136734
0.03143092460075266
0.03232633863590484
0.0329921399826028
0.03325176180889886
0.03290275839935111
0.03188828240536965
0.023549468725860282
0.015210655046350913
0.006871841366841543
-0.001466972312667826
0.02773092000532865
0.03060811475896341
0.021587459195187255
0.020765362360488676
0.026370142055247698
0.03351101085658093
0.03810157348547525
0.04184564796843032
0.0457958672718533
0.05070856200332999
0.05678679236150672
0.06330237578826083
0.06941837781864628
0.07428192909473953
0.07714378496130221
0.0775734166435999
0.0752914514298487
0.07017969303707738
0.06249117306635844
0.05290560435075007
0.04227807526004855
0.0313782123137462
0.021250336931713232
0.014555808715997301
0.012407752137822888
0.014404770016728737
0.01906320364258665
0.022928538055285587
0.024101603732027747
0.022320384566243363
0.018689282940385906
0.015890541046168376
0.015338273758782434
0.017556419845320494
0.02221882320544762
0.027109926667853848
0.0307057091800277
0.032215051066777974
0.030360470074730625
0.024213819547558742
0.015849923738004087
0.00924779586394388
0.007253429173643514
0.010577835016896384
0.017381902232094737
0.024346110769657297
0.028991781261454488
0.03146223086845376
0.031807283612279774
0.03041291653977439
0.02837043438777149
0.026493266918301596
0.02566076160490732
0.025792842522411003
0.026707423409759685
0.02774698260840932
0.028506546599394642
0.02883273817937306
0.02865335870567124
0.02801665149052233
0.02081752288131231
0.013618394272102288
0.006419265662892266
-0.000779862946317756
0.02637750316512092
0.029034685371635494
0.02050378815129803
0.02004080940311738
0.026006164973898918
0.03349036338695171
0.038397391045272844
0.04244418526697204
0.04666630501307363
0.05181160528267099
0.05805837788017947
0.06460369618358466
0.07051519084775985
0.07487017843110928
0.0769193134150746
0.0763398562410271
0.0730396120465143
0.0671066350756139
0.05894255991524325
0.04926736742679864
0.03888353761886732
0.02846875207727288
0.0190956137348598
0.01334969913004891
0.01194242797978352
0.014378026285802956
0.019057020127288795
0.022593212113295194
0.023524465744651363
0.021723395079905502
0.01830811586557302
0.01576622530290422
0.015348029862031503
0.01750505251586684
0.021858048631030844
0.026298138165402878
0.029395213638853116
0.030421814341977584
0.0282885401208989
0.022251727391459156
0.01438575072600743
0.008491400610780738
0.007085433256486464
0.010725013892257058
0.017549392576206645
0.02434996110528366
0.028848098980297318
0.03121960076108127
0.03156825182618964
0.030285602269135684
0.028415237312681443
0.02671181108850886
0.02600191798059675
0.026199486358205733
0.027136866341853094
0.028183694095572243
0.028948266295033803
0.0292769457264082
0.029087757243308258
0.02842262502371841
0.021109272403349498
0.013795919782980587
0.006482567162611676
-0.0008307854577572354
0.029367452639940735
0.03258326353183493
0.02302014558252285
0.02181143311386366
0.02700552853929898
0.03367468364691468
0.03783344541797206
0.04116665746078019
0.04473812690115333
0.04930367722281543
0.055089749638971064
0.061465926593968136
0.06773021509674744
0.07314338293178871
0.07698849467624413
0.07872278360831897
0.07783287141013291
0.07391533664287563
0.0669923104089821
0.05765009763560286
0.04678667834835673
0.03529579897060594
0.024263127353551163
0.016344381741131068
0.013209816704585015
0.01460902519223472
0.01915199554471187
0.02341513735321177
0.024904927594554645
0.02315278967751987
0.01923236022666327
0.01608209322581445
0.015336083376093993
0.017616990058145945
0.02267712980499701
0.028163976413294853
0.0324319158139283
0.03460438029150351
0.0331456212835512
0.02687459526499308
0.017981041830889298
0.010442599317086392
0.007664572346352181
0.010562585311323449
0.017208757988966542
0.02437508504638048
0.029204340707091155
0.03180136455125245
0.03214242073459444
0.030603377313833946
0.028335581699708828
0.026228752015798763
0.025231275957650987
0.025271842890033962
0.026150361870314758
0.027175424550342622
0.027925285040900884
0.028246431931168027
0.028078871613519022
0.027478249186795842
0.020429833129778596
0.013381417072761349
0.006333001015744102
-0.0007154150412731451
0.011435495198971673
0.01618532930284362
0.01709243892579824
0.023781374492268977
0.032980180357780886
0.04096307244150315
0.04739653435859249
0.0529088110992424
0.05774379754641549
0.062081129514364404
0.06573909799879216
0.0677286190264011
0.06715409798450253
0.06355103182718391
0.05711419959632414
0.04877539158286255
0.039663657464451656
0.030719807573693796
0.02258476263009773
0.01575223488301712
0.011019797337125553
0.009031407892506161
0.009707514554212576
0.012485268785906863
0.016039738053602686
0.018969720179878483
0.02058571436789665
0.02070788062018486
0.01964224684478383
0.017940048441978537
0.016418348735846293
0.015747730226770038
0.01582402923287572
0.01662749798781285
0.01762414583163935
0.01784152623604112
0.016819830066744857
0.01437710239241746