# vtk DataFile Version 3.0
vtk output
ASCII
DATASET POLYDATA
POINTS 5568 float
0.0 0.0 0.0
0.14892879916507973 0.0018936195610682605 0.9888461088481894
0.29279964331874553 -0.01602913572355341 1.9782802678731946
0.42047004897561246 -0.05231633556987131 2.9694328830877863
0.5196233123488382 -0.10401495455426701 3.963161157394976
0.5796115825236968 -0.16724406452009355 4.959355660037084
0.5918880726370265 -0.2377432163695673 5.956791952428233
0.5508397840275446 -0.31169922858591104 6.953208304290891
0.4529195089203838 -0.38614896374156044 7.945613895094465
0.29645693074147783 -0.45893982348730633 8.930611840456326
0.0810032906592224 -0.5284957084715839 9.904645570795969
-0.19336371735210034 -0.5933586746623292 10.864080581899824
-0.5257771501266788 -0.652109582561242 11.805382680342229
-0.9139348590843225 -0.7037710127581204 12.725526522144566
-1.3529750381790822 -0.7483769278131378 13.62288600054915
-1.835784483020701 -0.7871412344979466 14.497753058163605
-2.3541444701094942 -0.8218550185947223 15.352210708945075
-2.8997016941474074 -0.8543260245751392 16.189655005045218
-3.464519978513714 -0.8861304022672408 17.01425720441478
-4.0414869214029645 -0.9188970785508659 17.830367179686714
-4.6246359825964145 -0.9545482184411251 18.64194968852591
-5.209084325059649 -0.9947828553854667 19.452382479682544
-5.7905718621679965 -1.0410944142680005 20.264618580641827
-6.365197132926538 -1.0950547137147786 21.081254413978378
-6.929536758671491 -1.1581553985263584 21.904382041014646
-7.480628064963537 -1.2312761696511947 22.735617101006365
-8.015775700595622 -1.31446858957503 23.57626924627491
-8.532699852136895 -1.4071919560318487 24.427263840186207
-9.030145657042917 -1.5086608873292129 25.288804162610393
-9.508436882552052 -1.6175799766849315 26.160224919521134
-9.969247060258896 -1.7310167600540518 27.040444253721795
-10.414995834775922 -1.845570469780118 27.9282423600526
-10.848054849309092 -1.9579073553501767 28.822580279449948
-11.270687744961213 -2.063902863936874 29.722661602260366
-11.684697169580176 -2.1587290088931295 30.627981544910153
-12.092121422312225 -2.237428044020675 31.537823256503838
-12.495269409245614 -2.2967519228689866 32.45103318747806
-12.894849616085999 -2.334532588242684 33.36695255053647
-13.290700227738734 -2.349624598769416 34.285143448156575
-13.682777204701106 -2.3438559070848153 35.205057773695806
-14.071506246922665 -2.322020974451126 36.126151128058105
-14.456996055661415 -2.290352829706241 37.04831962457432
-14.839265955303826 -2.2540216447804835 37.971655841144035
-15.21819924923279 -2.220223271132544 38.89646243102697
-15.594161669258321 -2.195289507944349 39.82276182441002
-15.966454357977533 -2.184452650385405 40.7508139331003
-16.334476504180653 -2.1940843062083033 41.68058107121078
-16.696947458390916 -2.227249860568894 42.61198584538678
-17.051659636319968 -2.2846652097150293 43.545196833594304
-17.39505033836422 -2.3669900524339558 44.480774433807596
-17.722470116622134 -2.473151454051791 45.41967061849048
-18.028253376246376 -2.5987091170530863 46.36345654304923
-18.308539207093254 -2.7363526497162423 47.31345344354022
-18.560281825517393 -2.879908761235845 48.270541368923425
-18.781693464586393 -3.0234894397321135 49.23509384279269
-18.972308241483262 -3.1620682968249376 50.20692814306996
-19.132195291497403 -3.291551052586353 51.18553447209006
-19.26175496018035 -3.4082681443336447 52.170212801670246
-19.36149755857035 -3.508744053192986 53.160140074658166
-19.432669653650784 -3.5900221954227303 54.154287144501225
-19.477092031087935 -3.649606401038456 55.15152150753931
-19.496875487958047 -3.685749064702367 56.15067230831842
-19.494527196417906 -3.6975839816086142 57.15059951580338
-19.473531945207505 -3.6853196510740003 58.15030386491023
0.0 0.0 0.0
0.13775944048981925 -0.05245891156395116 0.9890755275273255
0.2820987118051642 -0.11677764562093418 1.9765112343991513
0.42155806030317855 -0.18477319120024227 2.9644017626956227
0.5456264549880725 -0.2507837320587958 3.954477336546364
0.6453934569650904 -0.3103501894423739 4.947703585933325
0.712353544798183 -0.35952379214184527 5.944246762837837
0.7385553898975294 -0.3961443579030167 6.943232447158048
0.7158767698799431 -0.4192497133265064 7.942708221124007
0.6375795376123223 -0.42826011397414765 8.939597561070721
0.4996041130912009 -0.4221666439041126 9.930014469170903
0.2995303853323713 -0.3993903114926466 10.909530544660512
0.036819292498359135 -0.35850888902076583 11.873538631244145
-0.2872603313520149 -0.2993011171734692 12.817713846528829
-0.6694829232060929 -0.22316211421848242 13.73864204270124
-1.1040401549985135 -0.13324383763008774 14.634786403745979
-1.5829068246987994 -0.03381073174182109 15.507024771454926
-2.096994466140542 0.07081826200433688 16.358357062974832
-2.6374534909299268 0.17702401783588684 17.192997332762936
-3.196602830493568 0.28191304920772325 18.015402529222335
-3.768083281273031 0.38306428533145875 18.829760264991783
-4.346640670284635 0.47846461995103073 19.639803550115825
-4.927850419895422 0.5663414630097451 20.44879853613947
-5.507759256500763 0.6452710426116484 21.259647389311816
-6.082476366083845 0.7143823065506847 22.0750760355766
-6.648007658043741 0.7734045333921258 22.897688176596198
-7.200563774763532 0.8228679225836883 23.7296948538562
-7.736997663897146 0.864358098170477 24.572616705464497
-8.255488678632133 0.9003258221487345 25.426942984160704
-8.755744516021005 0.9332042949742226 26.29219618593636
-9.238450079999579 0.9651501403207253 27.167396049664195
-9.704675180681603 0.9983823280757295 28.05143777785979
-10.155524250774855 1.0353549666904642 28.943271921627517
-10.592315302962618 1.0787654405789353 29.841786867238042
-11.016715762763745 1.1319178426051342 30.745700066543947
-11.431317210999124 1.1972432151216617 31.653355416788028
-11.839835621352432 1.2752764745891838 32.56276375126671
-12.244603289245296 1.3660706362773545 33.47266460038814
-12.647120769537507 1.4687454129505801 34.382300554104965
-13.04829691663302 1.580577971146637 35.29144915468076
-13.448696940597026 1.6975585449344268 36.200292026780176
-13.8483486443283 1.8163284354173992 37.109232194678675
-14.246925059985017 1.9342947262928707 38.018748986771776
-14.644023186875646 2.047554570369858 38.929509814508464
-15.03946254941035 2.151260558800093 39.84212845256154
-15.432301102967646 2.240323389106978 40.75741293461984
-15.82090371845236 2.307338757315187 41.676378085026734
-16.203228149005213 2.34824079522918 42.59950053253677
-16.576891786828494 2.362042720601419 43.52696211806185
-16.938860067592366 2.3487096081408048 44.45905717321072
-17.285145808519545 2.310395638048397 45.39640354746427
-17.610958295000547 2.250749668080421 46.33995459638512
-17.912006677393585 2.175202677879076 47.290566254071926
-18.185207755760217 2.0893602336596775 48.24868537273607
-18.42878327395286 1.9986267996515286 49.214313878368685
-18.64198923732219 1.9074108802570033 50.18705375790112
-18.824291571496378 1.8191780700723386 51.16632942397353
-18.97500458840504 1.7371682874670387 52.15149945096954
-19.09349730082643 1.6649095462951367 53.1418216972244
-19.18015527177393 1.6052433599135005 54.136271465827086
-19.235958731185377 1.5604266994186489 55.13370689775228
-19.26235544611658 1.5322036525034057 56.13295995532262
-19.26137199488777 1.5216068244642162 57.13290332374864
-19.236229004040457 1.5289283546304702 58.132560377546234
0.0 0.0 0.0
0.12891574478724588 -0.093988863066367 0.9871913818330473
0.27325326864155375 -0.19441798352800527 1.9716103327736054
0.4215914390428168 -0.28751308518208657 2.9561554507087977
0.5648280504587695 -0.3651788011334513 3.942791812148937
0.6952537665609576 -0.42213189971006587 4.932612744005682
0.8041139778587846 -0.45437831677282053 5.926146650313266
0.8813334005182994 -0.4611286369642013 6.923137921058123
0.9151857487436927 -0.44329715630392813 7.922405681379193
0.8953657554706889 -0.401811371479654 8.921348170977152
0.8155282041204457 -0.3361687794769415 9.915992336249117
0.6717240015821941 -0.24460314642477904 10.901353227585938
0.4626153268321891 -0.12556186101261063 11.871972995832863
0.18891167350866944 0.020670047376799117 12.822605700470227
-0.14731950118953996 0.19172997909689007 13.748719676674549
-0.5413750023277711 0.38298493998875827 14.647686751687282
-0.985584489629865 0.5881481616155609 15.519802560443505
-1.4705208769359794 0.8008345165457573 16.368095678824766
-1.9868696491111848 1.0158046499396542 17.197053933034088
-2.526765198049717 1.2291574235387823 18.011297993641175
-3.083779346485457 1.4379624046935349 18.8151236701951
-3.6525566727256416 1.639800637311064 19.612465304006417
-4.228684086961083 1.8325217049261235 20.406779972550122
-4.8082226477826495 2.0146099275398868 21.2011217980297
-5.386838370741953 2.185465272903045 21.998625588682206
-5.959575764163137 2.3452308947773233 22.802644757759804
-6.521658875120169 2.4949924979601503 23.61605365775351
-7.069125188859491 2.637286889488188 24.440694756329336
-7.599488371596523 2.7759875321005865 25.27704218780501
-8.111847690627403 2.9145836601508646 26.12455563400612
-8.606379747945818 3.0549588329498008 26.98230434729346
-9.083351195856004 3.198614278176878 27.849403736599594
-9.542997480051511 3.347281424443808 28.724974049621974
-9.98610618623375 3.5021585998841136 29.60796200822228
-10.414406539297755 3.664822216588349 30.496837339956684
-10.83106120550511 3.835681315628376 31.389701303504808
-11.240899886370212 4.013972211313195 32.28426522642069
-11.647337991988012 4.199120826500083 33.17898756133594
-12.05272773313079 4.389871109339954 34.07300852718221
-12.458277801704154 4.583835296901663 34.96626494939459
-12.86440291054068 4.778247481943144 35.8591626469389
-13.270960583853673 4.971419205731495 36.75213271552965
-13.677507031917873 5.161649727774466 37.64573907967979
-14.083689321900941 5.346213166062246 38.54069845560225
-14.489226795953051 5.521140042302396 39.43788290994165
-14.89315430974735 5.681702596833457 40.3384728441972
-15.29325481083864 5.820074087562214 41.244438030934525
[...]
CELL_DATA 87
SCALARS quad_param_group int 1
LOOKUP_TABLE default
3
3
3
3
0
1
2
3
1
0
0
0
1
0
0
0
1
1
1
3
2
0
1
2
2
0
0
2
2
1
2
3
3
2
0
0
1
1
1
2
0
3
3
2
3
0
0
3
3
3
2
1
3
2
2
2
2
2
2
2
1
1
0
1
3
3
3
2
3
2
3
3
0
0
3
1
1
3
1
1
0
0
0
1
2
1
1
SCALARS single_component_feature float 1
LOOKUP_TABLE default
-0.17929898206996217
0.0675236026650421
0.2537911031011375
0.29745158089822077
0.14464507064957927
0.2117288456778475
-0.07547541112385482
-0.08176732821444979
-0.03185081785695573
0.1517661199779896
-0.11974473991316256
0.17374512811990867
0.1356594690084612
0.0028569916548131474
-0.0026416963204357116
-0.08687748360181452
-0.007932570058730992
0.17559829772770857
-0.02904997056081811
-0.19619964113507923
0.08878448981030762
0.05578923292497357
0.21495122928301813
0.19163681723525477
-0.19848371087902672
-0.007573286448860565
0.10074288477738676
0.550173993384065
0.13646546386440514
-0.04643866858750021
-0.13750930992236832
0.1033704192758815
-0.13933864634808266
0.12330521707801717
0.15473501824455124
-0.02574618143443431
-0.03729856997906688
-0.04886034133661726
0.07830894648775454
-0.21307470655368366
-0.14402560713130655
-0.31500521371434753
0.2686106587281407
0.0631909358677934
-0.24784749714596532
-0.04448214181404171
-0.35926059545684624
0.030170614858053085
-0.017091450412915682
-0.0013653975773603756
0.06349089987010395
0.20765652671531054
0.11569490141604635
-0.06641693787545923
-0.0071838023776053875
-0.5057186408583373
-0.32537099640583156
-0.36848169916571816
-0.031773730368468374
-0.18835004417636503
-0.04049819254183941
0.07844651969411474
-0.12536231812812582
-0.04063752165667507
0.14123147632098848
-0.09335087726422373
0.04327441902789178
0.2770093790893734
-0.26752208654058485
-0.04077964085779768
0.0007168323909582594
0.1666441200137927
0.0812283963985866
0.11967514858309655
0.12368509200021438
0.15810313223776173
-0.07431153311191002
-0.27612700446312227
-0.19837855934304297
-0.17775116136252989
-0.15125848346382698
0.05596235409295122
0.28515371371588
0.14701177783094255
-0.3849332461033812
0.20437171576140128
0.11408790520280696
POINT_DATA 5568
SCALARS single_curvature float 1
LOOKUP_TABLE default
0.019377408504348208
0.029594421800232733
0.036538122888402864
0.043746473925416335
0.04985285676190613
0.05436899421357185
0.057309035400897754
0.059157942737768886
0.06017888884388332
0.060430684831037015
0.05946216748497718
0.05664481687748451
0.05168263174224415
0.04473306370026774
0.036492830661955813
0.027830030981189968
0.019585746832748167
0.012774163636339271
0.008734251929518775
0.007815480518627226
0.009572010149046298
0.012967114999400215
0.016486733905807113
0.019445787463384587
0.021594398287302266
0.02267376615934377
0.022425482624835548
0.020895956015851418
0.018555443140623826
0.016227216228818186
0.014969386980081066
0.015244143601194091
0.016663218855678175
0.01879152406689412
0.020803731200611145
0.021621280148669497
0.02070389432209031
0.01780641545771847
0.013478037185405366
0.009271483014838362
0.007525210304864229
0.008590857244853341
0.01238857744423741
0.01733591638906618
0.02134820155527123
0.024543963354756216
0.026518249824791767
0.027824722493778126
0.028665693840846766
0.02929883618661521
0.02988621349583952
0.030528541367430884
0.03149257942462143
0.032356590098265955
0.033135619316665574
0.033794639987653245
0.03425028386963588
0.03440063454401791
0.034032758132640756
0.03298256008171022
0.024346263747625472
0.01570996741354072
0.00707367107945597
-0.0015626252546287814
0.008864566786578609
0.015197602707445492
0.02042263104980544
0.029562047577749426
0.038309290103214565
0.04631376294416819
0.053122229696016786
0.058723469355458614
0.06277898542537276
0.0651686362935091
0.06590623374366027
0.0644907576838099
0.060565833052716844
0.054154137341528005
0.04577852918200609
0.036514137357353246
0.027515907198612275
0.019722862944552236
0.01392445046815519
0.010638227627957863
0.009843843977430189
0.011176533325933189
0.013828031367386997
0.016779458424956914
0.019266458849629707
0.020781124908748932
0.02116594555288982
0.020593207317745936
0.019512056989291017
0.018353110587850826
0.01747001221300109
0.016800802760343236
0.015940715079767496
0.01505755875507057
0.013916439285109928
0.012216719540667822
0.009971517394258408
0.007129829207559841
0.004471541828765576
0.003426398690477019
0.00459085183682601
0.007882472089823008
0.013203852868220185
0.01872423101363959
0.023447966943088594
0.027144826989243004
0.028945168272830415
0.029702718533760948
0.030073606034074826
0.03025208556681238
0.030499776396280546
0.03074539627844261
0.031110661603897694
0.03163682758467714
0.032411756821921205
0.03323252994632859
0.033892539036927335
0.034162805796217416
0.033792127255953736
0.032693197973334635
0.024108489750213367
0.0155237815270921
0.006939073303970832
-0.0016456349191504363
0.010419563571899408
0.01655836837316637
0.02057182944348108
0.028671392090783385
0.037037681532312426
0.045540489687471986
0.053472335978441254
0.06065531892317315
0.06624099559713331
0.06977485733770575
0.0714549313851336
0.07079806236774508
0.06736972690658209
0.06112925905181065
0.052505020669044535
0.042740355540423075
0.03325622448029173
0.025104636939563205
0.018893992022105795
0.014734165783243793
0.012523951655070208
0.012276647889645933
0.013595180556176308
0.015775094706650797
0.018106463166139813
0.019866602834863398
0.020681686862944026
0.020750294556720356
0.02047314541819928
0.01996684441406373
0.019242955150433744
0.017899779635985266
0.015475833927805568
0.012600841025394488
0.009602781011165245
0.006732841011548202
0.004379459479648838
0.0027943729748173742
0.002111217531007643
0.0027437714908429512
0.005018373548647844
0.008401692367305516
0.013436203585358615
0.019083702512983806
0.024186162514176653
0.02818794597441669
0.02991645668665585
0.030376140042292415
0.030561937343095476
0.030602873063488804
0.030790356008889713
0.030932849779186717
0.031034676855030693
0.03151837644076643
0.03249888798833609
0.03367720672915371
0.03478373161928886
0.035474461186467646
0.03549037234686202
0.03474193716458929
0.02577189167377794
0.016801846182966595
0.00783180069215525
-0.0011382447986560962
0.012265170986188638
0.018857147646520463
0.02277157669331198
0.0301827546831107
0.03799782807908608
0.04618878365364281
0.05404109781287069
0.0613780208351558
0.06721018927387516
0.07095119853392372
0.0728081639359994
0.07228973202696622
0.06893906234565042
0.06270720975289806
0.054007070505927755
0.044122642930555886
0.034538192897867574
0.026334497308303343
0.020095636365619562
0.015846198019644136
0.013406854558246022
0.01283102809042896
0.013812693367680092
0.015721840131222502
0.017930064408857815
0.019713883339735644
0.020616597053745512
0.020824616892847925
0.020717817206260532
0.02033438521616398
0.019634907535023383
0.018160548810180206
0.015425295849468171
0.012140297259661498
0.008774554187600505
0.005706575934242135
0.003575833634246515
0.0024255611734259087
0.002174791882346097
0.003111154815798289
0.005344375661802421
0.008545394009221365
0.013444393084513876
0.019071065823482097
0.02423235536785212
0.028291846126041548
0.030013649545974245
0.030423938507107444
0.030591739012624096
0.030629370925483606
0.030829434174176818
0.030975477959838453
0.03104473891324536
0.03154855066198476
0.03260368277301325
0.033892722096296485
0.0351354445997754
0.035958999756407414
0.036104643882499024
0.03547451935876937
0.026364185593777522
0.017253851828785673
0.008143518063793823
-0.0009668157011980261
0.007336891456321857
0.013167655021806658
0.01779574560271462
0.027683618872609506
0.03674571664817951
0.045316701060544765
0.052861374448884973
0.05928763416493278
0.0640680146761662
0.06698279797129163
0.06814775233134274
0.06707929623408608
0.06339227923888684
0.05707805312389633
0.04861510439387492
0.03914697595844216
0.029937324727411122
0.021967856296913
0.01593140438372104
0.012178054622564091
0.010718811121050964
0.011371953636000638
0.013506294408034806
0.016224497043661554
0.01871294792784658
0.020350079550264858
0.020921286219347152
0.020622706535550366
0.019889866081749547
0.019026713756023907
0.018221266170730763
0.01725613368952863
0.015713395677289563
0.01396362205112608
0.011995792191281465
0.009746297336904684
0.007366442263874138
0.00475072555868738
0.0029278372095777913
0.0026519684080442783
0.004401511300095038
0.008074668072478237
0.013343213706268009
0.01895424191371345
0.023857913865388387
0.027691531476901548
0.029453997988731554
0.03007212667423419
0.030345573630809287
0.030443028805796118
0.030643418310668455
0.03082346393079281
0.031056359995149073
0.03154045074244372
0.032378391009172516
0.03332400990914167
0.034141177325259585
0.03455499092265102
0.03430895798517385
0.03332134759044138
0.024619809280655974
0.01591827097087057
0.007216732661085166
-0.0014848056487002381
0.008870611072902648
0.014743499126796494
0.018940304476002978
0.02778100163177973
0.03656099108736554
0.04521738598167469
0.05309875451290421
0.06005163706074279
0.06535868840145237
0.06867121703649572
0.07016519391991642
0.06936081492265966
0.06584373083262811
0.059583766970257745
0.051026709515889626
0.04137708122240483
0.031994942175539345
0.023904620628392673
0.017742079022561388
0.013705945986023982
0.01175584865325732
0.011843875615632802
0.013483560101406729
0.015896822511115342
0.018313499666972873
0.02003559305232863
0.020760297118371723
0.02069043234900227
0.020242778210253668
0.01960747926869046
0.01885581012239734
0.017650793131989452
0.01555126226413547
0.013094118588183257
0.010473933580198035
0.007822804683444408
0.005413283328014245
0.003385731462508635
0.00227488924545919
0.002581410995129318
0.004714364804877717
0.008272401104166516
0.01341364076564513
0.019061392157182735
0.024095730612580236
0.028036592514160675
0.029775309946878218
0.030290267219519783
0.03050264299195871
0.03055715387600022
0.03074204285001
0.030891161151001784
0.03103526425344374
0.031510639532696824
0.032428769347355633
0.03350984413557383
0.034495989012916284
0.03507036008583565
0.03497429492211572
0.03412346491738279
0.02527093935583615
0.016418413794289516
0.00756588823274288
-0.0012866373288037553
0.01443542353913726
0.022760248636443877
0.029028297997404254
0.036835138515690605
0.044106041076592224
0.05023907793108594
0.05498810596175938
0.05857349963230906
0.060986386537958855
0.06221730422978419
0.06202650455487369
0.05984960935297541
0.055370421173846225
0.04868471561305244
0.040412297631354774
0.03150641420478696
0.022931260492125495
0.015599384406962825
0.010613175711636474
0.008572799896375553
0.009208266903588327
0.01180260367557365
0.015132978714811632
0.018194181338857696
0.020521050042776757
0.02178180248556243
0.021805182270714932
0.020693323845153034
0.018908576895440073
0.017109605611170104
0.016033161819475054
0.01592568593132538
0.016387802003377652
0.017222187892945526
0.017822869758945432
0.017433377022055732
0.01577350254070899
0.012751715511510917
0.00895677203999962
0.006192703329922055
0.005865262172242117
0.008062821751654509
0.012781784080316395
0.01802530023620441
0.022353300741144
0.025768040616649085
0.02766231147071036
0.028724349303552787
0.029343021163269173
0.0297530352614046
0.030165917598272196
0.030610361269018043
0.031294731260407875
0.03198197945725869
0.03272164026091583
0.03340314148254026
0.03388643029822856
0.0340201493795126
0.03357136661138557
0.03241879364764749
0.02388432023252847
0.015349846817409446
0.006815373402290423
-0.0017191000128286005
0.014720964785015046
0.023153165337181657
0.029463293835426407
0.03722590221271528
0.04442482707036362
0.05046282082303341
0.055107467630897036
0.058592944366212374
0.06092575343103932
0.06210045888368167
0.061864904159097706
0.059651176692686894
0.05514449174343563
0.048444197487654425
0.04017466946588415
0.03128392642171019
0.022728234568622382
0.015422072793751743
0.010484858427882502
0.008508494527319431
0.009210684273881976
0.011858056852013443
0.015207192965018377
0.018265442465129875
0.020582392597354237
0.021831909066709294
0.021839053426450594
0.020702536160739398
0.018885147705170746
0.017055500536819465
0.01596902803023325
0.01588568019617589
0.016406350048203126
0.017318543105480012
0.01800160055137968
0.017679081697513657
0.016056311025126647
0.013035475655986622
0.009203302267527629
0.0063555635255282275
0.005950064141060718
0.00808712275321035
0.012759182762873236
0.017987400762954735
0.022296706687487636
0.025698415869921044
0.02759733986710469
0.028673790150573853
0.02930506313113671
0.029727417901862587
0.0301496746608128
0.030604939539215236
0.03130524105035529
0.03200185741827288
0.032742368445912017
0.0334205953131942
0.033899735268007915
0.03403159920241712
0.03358430923106583
0.03243439893999954
0.023897075448079747
0.015359751956159955
0.006822428464240162
-0.0017148950276796304
0.01252677188404852
0.02014287577950333
0.026111632693954258
0.03425678054672988
0.04202312429469977
0.04879543828688263
0.054242565720939724
0.058497881119285874
0.06144907499791671
0.06305798431391171
0.06316864290439969
0.061239641742102675
0.05694421901099596
0.050354110079245215
0.042057988741296334
0.03304564001739072
0.02433748397636559
0.016842078468928563
0.011548138271810613
0.009082394510385231
0.009262107071755763
0.011479807565128413
0.014652591220402062
0.017718798547045455
0.02010943395326688
0.021448502952189617
0.02158373303794591
0.020640628423664344
0.019078361940425944
0.01748654297340089
0.016476102025543227
0.01619905311082512
0.01625483846015605
0.016553773307447197
0.01659591949915278
0.01576405823627398
0.013874229256329668
0.010867815715327453
0.007352913126207875
0.005151781735918189
0.005336778775804873
0.007924793978360961
0.012930607230186608
0.01827260736207822
0.02272783947031827
0.02623173279591537
0.028094742572954162
0.0290588274745653
0.02959373266701774
0.029922865318233686
0.03027539475669863
0.03064936089847224
0.031227338210544575
0.03185471277749885
0.03259400772269553
0.033304915126911215
0.033825559184920875
0.033982023636457755
0.033534639464930266
0.03237566867388006
0.023849165305587023
0.015322661937293987
0.006796158569000951
-0.0017303447992920856
0.007375977735103695
0.01318879388130104
0.0177651874965454
0.02761366662079476
0.036671634401608096
0.04527099769500637
0.052865762746026314
0.05935682425829185
0.06419781613085408
0.06715743684408822
0.06835920429176168
0.06732045796737832
0.06365312922445315
0.057346019145704946
0.04887386886859952
0.03938663294707363
0.030158138073158376
0.022174453878910195
0.016121404166747826
0.01233272537835402
0.010817208873427124
0.011408925989274506
0.013492260128767357
0.01618240325616094
0.018666743517862155
0.020314049160641914
0.020901998034229177
0.02062813756512488
0.019926351372901125
0.019088687399435315
0.018289532293812246
0.017297988930087816
0.0156942282555717
0.013867165294320024
0.011827146388249023
0.009531819144411514
0.007144898562453325
0.004553984360504936
0.0028083836921473926
0.0025980513812541898
0.0043941267097716815
0.00809525105637161
0.013352851671398101
0.018969784111770645
0.023888542192106902
0.027734096062883358
0.02949361816034912
0.030099954788262474
0.030365846202164874
0.03045750776957032
0.03065510743838702
0.03083069586468405
0.031052961126129198
0.03153486936594083
0.032380198534126214
0.03333902987996189
0.03417274878750606
0.03460208479985229
0.034370212466991526
0.03339545545642841
0.024680043128587965
0.015964630800747517
0.007249218472907069
-0.0014661938549333786
0.01648839169343532
0.025591298737472606
0.03215126220152195
0.03966972955620711
0.04643609149230126
0.051889954305894145
0.05588826363972102
0.058754932797961935
0.060592151997316226
0.061418786851795484
0.0609064430654246
0.058464821789456826
0.05378711564398247
0.04699473388284991
0.03873996290073345
0.02993946622013962
0.02150277954171635
0.014365572177230683
0.00974817359317262
0.00817035133675079
0.00927936561066546
0.012237043887810278
0.015678441605776992
0.01870880398688917
0.02096294995711706
0.022145213394425548
0.022053783734714442
0.02076667397471594
0.01874936508144658
0.016730536780413516
0.01558084349057715
0.0156408159439553
0.01651386696721813
0.017897954264821134
0.019087361812032376
0.019186103071933233
0.01780876863018253
0.014811340481661044
0.01076861202770578
0.0074041840647624205
0.006505551020995405
0.008255084111034957
0.012618156363928603
0.017747485112847933
0.02194249929193387
0.025264793685477967
0.02719243437957055
0.02835714403463662
0.029067020938710424
0.02956725338661557
0.030049503682906053
0.030573416433746316
0.03137280627802246
0.0321297472188665
0.032879624997397584
0.03354330769371192
0.0340041339523833
0.03413257073352992
0.033703539059811216
0.03257925909680997
0.024015621755488856
0.015451984414167744
0.006888347072846631
-0.0016752902684744816
0.007765528588350777
0.013556167914605477
0.01798048944149565
0.027518030726207815
0.03652356100621517
0.045181991557947686
0.05291034997512282
0.059588362752040866
0.06460945022424312
0.06770354320795767
0.0690161053790838
0.06806654889482638
0.06445752331349666
0.0581703466379715
0.04966860271857076
0.04012213082446436
0.030836253584056693
0.022810795788202984
0.016711539500736478
0.012821928111357019
0.011138791223131097
0.011542883645358309
0.013466247689844923
0.01606313838379275
0.01852970033091005
0.020206821291443675
0.0208458241320439
0.020647607598256516
0.020040495758900434
0.019279548662766512
0.01849892361511404
0.017427168721055826
0.01563773266456982
0.013575312790490011
0.011316903795390958
0.008885016134304905
0.006481759700626564
0.004033690096850984
0.002524287376809593
0.002510592561103927
0.004442116554504198
0.008159512987025672
0.013379286315654717
0.019011534208727175
0.023975078599630918
0.0278566684662278
0.029607727859802476
0.030178903608840433
0.030423068362971036
0.030498689864643054
0.03068938888751305
0.03085296829363728
0.031044201445942547
0.0315212407523681
0.032391056572072564
0.033392427502806944
0.03427933340342075
0.03475889328475925
0.034573412509948304
0.033640889448952695
0.02487941277146496
0.016117936093977228
0.007356459416489495
-0.0014050172609982384
0.0073666209727209124
0.013227372695884145
0.017922065246329853
0.02779864200623449
0.03685706516409941
0.04538596812561882
0.05286281753463086
0.0592044229926844
0.0639067599641419
0.06676408042843263
0.06788194271585107
0.06677543137186419
0.06306301556714292
0.056739351828669356
0.048287741790719145
0.038843660055806355
0.029657957849296805
0.021706910424804743
0.01569259165903509
0.01198568333140969
0.010598773735583824
0.011329825445763827
0.013527882938050122
0.01627995296030444
0.018772481361531753
0.020396447780118537
0.02094639878582765
0.020616481705895293
0.019844189465044685
0.018948433149650078
0.01813483998761344
0.017203302618031654
0.015738125158141655
0.014086578301018315
0.012210841189106146
0.010020316682042039
0.007650612747056341
0.005004972679369088
0.003084136773830084
0.0027242762878385888
0.00441329289998004
0.008048952107062359
0.013330288654857308
0.018933231557620955
0.023817476356719255
0.027635855485173257
0.029402176319394714
0.030035458075003928
0.030318795564684208
0.030423975383472458
0.030628270512376387
0.03081433282225509
0.031061039586638316
0.03154830286127977
0.03237729944280983
0.033306647473054556
0.034103410979978946
0.034498169824682776
0.03423488766649624
0.03323165320692461
0.024546884033916024
0.01586211486090744
0.007177345687898854
-0.001507423485109731
0.011118298128414372
0.01822479340630093
0.023943831717348294
0.032399964376882286
0.040545200344115885
0.047792244982365666
0.05375651781499792
0.0585130454424631
0.06187014398362642
0.06376469469904529
0.06410390708359162
0.06236251900840645
0.05820434081653168
0.05168299552650144
0.043363248463726224
0.0342643425558519
0.02545278917797751
0.01784301114655199
0.012343460030403822
0.009565536394103433
0.009393238627340194
0.01130384780086392
0.014318133440802757
0.017366109446296442
0.019799572198341393
0.021200943590411907
0.02142424483998877
0.02061268726158749
0.019222556435614106
0.01778829567528197
0.016825942188374327
0.01641207185267617
0.016145407223320373