# vtk DataFile Version 3.0
vtk output
ASCII
DATASET POLYDATA
POINTS 5568 float
0.0 0.0 0.0
0.08689084451070389 -0.0463660518200531 0.9951382669653684
0.1541620592282708 -0.12034211066160845 1.990126772621938
0.19624001794963425 -0.21034988513877395 2.9851785531457016
0.2051020269302421 -0.30647707549613656 3.980508160899247
0.1748377842760263 -0.401561699022407 4.975517201051865
0.10130554527573415 -0.49051547238653825 5.968834993116362
-0.017772388845158138 -0.5694532371288805 6.958577017536353
-0.18372116208539266 -0.6355053828455288 7.942496790031188
-0.3975296913457559 -0.6869573935289011 8.918016448168409
-0.6598656065009417 -0.7230314212561562 9.882318544061198
-0.9706496896374985 -0.7434402896634836 10.832579945865618
-1.3292631914446418 -0.7481894123155 11.766053995936456
-1.7349385545056586 -0.737543695371655 12.680009229258124
-2.1846938880714526 -0.7129320490234301 13.572821867381684
-2.6729097924959877 -0.6773539968028642 14.444819248608901
-3.1922824720061795 -0.6344605465510467 15.298289911082954
-3.7349014831659444 -0.5877505879257621 16.136969103917274
-4.293251423881573 -0.5401808094906609 16.96520968483715
-4.8608861528297345 -0.49433408935951473 17.787212660954122
-5.4326038057939865 -0.4525464533478706 18.60659823488474
-6.004243619302059 -0.4164826357566611 19.426309967552513
-6.572343409833593 -0.38735146270111165 20.2487538882878
-7.133879469286015 -0.3661692769558204 21.075934986319968
-7.685958735006235 -0.35369497708884756 21.909633298783568
-8.22561798198554 -0.35019525274503527 22.751509565867543
-8.750059786393068 -0.35526208919061625 23.602940785026323
-9.257028686449361 -0.36774261895663246 24.464814772771906
-9.745364115365454 -0.3853258027126334 25.3372936209478
-10.215350323453126 -0.4043773311510719 26.219761752650886
-10.668076436571074 -0.42077046979494026 27.11126067665838
-11.10527913102157 -0.4306500111932523 28.010569410423923
-11.528939334743676 -0.4302600211133858 28.91639051841925
-11.941260634435286 -0.41583611200130177 29.827314827385997
-12.344061614007092 -0.3832924667736923 30.742023678338743
-12.739307334900383 -0.32902317781786217 31.658994596302758
-13.129350419523309 -0.25153082334724153 32.576524610600075
-13.51506880927005 -0.15073714724788165 33.493618912550296
-13.89673672968785 -0.029172978174143993 34.40988947920698
-14.2749953298681 0.10678795687567791 35.32555047298692
-14.651198835418288 0.24941695966052393 36.2410437225395
-15.026231734511464 0.3924611761200931 37.156952384325834
-15.400462965349883 0.5312919770055632 38.07383677975999
-15.774304071010183 0.6577765311962686 38.99266455756705
-16.14836852911842 0.763640464536248 39.91400521595459
-16.522373344473525 0.8427495421665196 40.83805183378709
-16.89506790631086 0.8895744301142838 41.76482375472857
-17.26324164251066 0.9030447159294113 42.69448318235394
-17.62294623198746 0.8840794052321646 43.627356660002164
-17.969648644785423 0.8344008226757776 44.5640153360391
-18.298032700139366 0.7576334506682337 45.50543484018396
-18.60260586903789 0.6595722550796226 46.45286250850848
-18.879671349489794 0.5473872024615156 47.40714194007506
-19.127099980061253 0.4272411318822723 48.368570041649946
-19.34368026870457 0.3048215032977737 49.337128977961214
-19.529153685622557 0.1849917850953888 50.31244454240808
-19.683327444806487 0.07155086748771114 51.29395440491147
-19.806227466678916 -0.032323795853666876 52.28092230658785
-19.897969275865805 -0.12383066469862376 53.27249173602852
-19.959273334133897 -0.2002086403578947 54.26768428889156
-19.991563440684324 -0.2591490700311709 55.265423420513095
-19.996849695413392 -0.2990885928718899 56.26461153594792
-19.97769754958973 -0.31928747375898503 57.26422406114019
-19.93756068164089 -0.3197967201142655 58.263418122621445
0.0 0.0 0.0
0.2153948875601238 -0.024947210458317437 0.9762083174729204
0.4661609455740787 -0.04441987132575312 1.944060165447022
0.7329530338707203 -0.059296175716288924 2.907699453349916
1.0007484413013998 -0.07170757374680672 3.8710953101803076
1.2552582784326094 -0.08178112612687427 4.838113027880397
1.482025693280725 -0.08745749223596641 5.812045427193048
1.6674034689931485 -0.0882379136791828 6.794712446693696
1.7976705073532884 -0.08470181883997913 7.786185086129684
1.8620154994894018 -0.07677688643142455 8.784081331955534
1.8540330180524394 -0.06262624462430186 9.783949342908256
1.7690634181089413 -0.03879127885463099 10.780047762489474
1.6054095777572224 -0.0015664197873690722 11.765863024293406
1.3651373808093568 0.05071630094572037 12.73515956740423
1.0517587553140415 0.11777369412022023 13.682417263653411
0.6708909117498172 0.19763933780142 14.60359106088069
0.23075968580381567 0.286884068098022 15.49707854375975
-0.258805085792131 0.3816631489414615 16.363879132272864
-0.7876534481814185 0.4786664456266162 17.20703378595769
-1.3464145017309153 0.5752966303211843 18.030713755631684
-1.9269047140482392 0.6692860867598156 18.83953827027139
-2.5220625523996647 0.7582436853683409 19.638208222816658
-3.1256804737738313 0.8396728066992878 20.43131269462047
-3.7320459639423142 0.9114673662491859 21.223251097245175
-4.3358577815431545 0.9723171315344106 22.018052075471992
-4.932275687029533 1.02171873505042 22.81920447270069
-5.516954662283937 1.0601257420319667 23.62955957863276
-6.086290492252353 1.0890979262042972 24.45115395863938
-6.638181612713257 1.1101864723926795 25.284803443960442
-7.172041346985616 1.123392574108675 26.130273362408232
-7.688330618428456 1.1286334528042814 26.986671588342592
-8.187615832661756 1.126613360463325 27.85310692584617
-8.670106806228052 1.1186002210600878 28.72897121329255
-9.136022272176007 1.1070181544512543 29.613724644664007
-9.586412735236774 1.0954690557896487 30.506481637974062
-10.024242142789795 1.0873694485388272 31.405503220720632
-10.454607065395692 1.0847455250312812 32.30815439831685
-10.881205153448635 1.088815042107826 33.212586546297196
-11.306372926946214 1.1004442364428673 34.11762639415928
-11.731186006806473 1.1201873335819317 35.02269216928007
-12.15558557893022 1.1478197521885054 35.92774545645334
-12.578626374953547 1.1829487656334792 36.83317487795141
-12.999003370611858 1.223943188924401 37.7395978690435
-13.41571216978841 1.267681512114005 38.64758505825566
-13.828480638783287 1.3107886491737122 39.55740040531139
-14.235708577509653 1.3496448023525376 40.469900052040536
-14.635528540501443 1.377345783473775 41.38607506416331
-15.027428920892335 1.3886792996565114 42.30601291166194
-15.410839836329954 1.3811647756204244 43.229560204361015
-15.784299478204456 1.352717942100994 44.15677036044953
-16.145314833448506 1.3032763915501677 45.08801868735119
-16.489775462302024 1.2343478271577708 46.02428559810935
-16.81325428042738 1.1502775463302044 46.96677890954758
-17.111756699127465 1.0561611206460608 47.916535933447186
-17.382896322810705 0.9571535911435373 48.87397042915471
-17.625528323105616 0.8572680318923587 49.83893290898798
-17.839104443992213 0.7597513149796026 50.81098009431881
-18.02272809327617 0.6679990216940606 51.78968529615462
-18.175518363979148 0.5862894910834213 52.77456025562202
-18.297961945083333 0.5174600678002846 53.76464615085379
-18.39093435866308 0.4636608166376436 54.75886029825238
-18.455450150583932 0.42671132703123593 55.75609269233645
-18.493013572673124 0.4077762007953841 56.755207525734185
-18.506593241818454 0.4071442770370356 57.755115118093734
0.0 0.0 0.0
0.20897474033962515 -0.026042673695415797 0.9775742105061795
0.45058435341365277 -0.04830868255106782 1.9476922547254685
0.7061805183193856 -0.06705854767006744 2.9142940564222686
0.9610926034855396 -0.08381162933275191 3.8811131517503696
1.2014644493529252 -0.09830051247226865 4.8516858939905765
1.4133417200541836 -0.10828437312274417 5.8289311777789905
1.583572895022836 -0.11307682475501504 6.81432367799205
1.6989448830101468 -0.1130779853464153 7.807646034725506
1.7490430043101357 -0.10814016945853963 8.80637812904133
1.727721609319052 -0.09648773946389769 9.806082894955173
1.630577715266277 -0.07483058191145919 10.801117583483675
1.456071199201482 -0.039671030270161195 11.785145673417754
1.2062655171973466 0.01053937700828897 12.752138970312505
0.8847597700306165 0.0754432267727356 13.696819627902421
0.4973083735034988 0.1530113682049924 14.615440658994096
0.052196965914858895 0.23980320659897675 15.50669988706562
-0.44078522471058257 0.3320021480101123 16.371840288924652
-0.9716122275577975 0.4263316378750558 17.214054418698108
-1.5310839492385067 0.5202087527720709 18.037570344432538
-2.1112066415818123 0.6113731054083219 18.84698168771651
-2.7051123213861934 0.6974850149706604 19.646894672063947
-3.3067810916853295 0.7761286036803591 20.441759362940065
-3.9106815626281635 0.8452592253979718 21.235815518596553
-4.511667399669026 0.9035882187558 22.03294396007268
-5.105007036417105 0.9506100461538232 22.836521599888403
-5.686429184035993 0.9867605737123494 23.64932011466035
-6.252383662221722 1.013568630181792 24.47332063452053
-6.800800004990871 1.0326170173931215 25.309309075785336
-7.331129205996855 1.0440834089797282 26.157023332138465
-7.8438824061827574 1.0480945670638213 27.015550015655023
-8.33972090216085 1.0455262323148762 27.883960972266465
-8.818991818661658 1.0377942457022422 28.761593927994255
-9.282060353063647 1.0274033867074648 29.647855493501947
-9.730054235541074 1.017983282048106 30.54184248607567
-10.165892587946312 1.0129023967399133 31.441853105555893
-10.594488670140594 1.014045439980025 32.345348590757595
-11.019350584403687 1.0225070247764592 33.25056721373849
-11.442697563052578 1.0390502410532552 34.15638378328449
-11.865570484127726 1.0640341579798116 35.06222830444492
-12.287945006109352 1.0969065786420116 35.9680534349975
-12.708960124152647 1.136879139039945 36.87422586052932
-13.12743496602991 1.1821292249837434 37.78132631606767
-13.542460157735372 1.2294926497349596 38.68990256286575
-13.953764422320017 1.2756190028186554 39.60023281144902
-14.359789807280855 1.3168246722424246 40.51316516358402
[...]
CELL_DATA 87
SCALARS quad_param_group int 1
LOOKUP_TABLE default
3
3
3
3
0
1
2
3
1
0
0
0
1
0
0
0
1
1
1
3
2
0
1
2
2
0
0
2
2
1
2
3
3
2
0
0
1
1
1
2
0
3
3
2
3
0
0
3
3
3
2
1
3
2
2
2
2
2
2
2
1
1
0
1
3
3
3
2
3
2
3
3
0
0
3
1
1
3
1
1
0
0
0
1
2
1
1
SCALARS single_component_feature float 1
LOOKUP_TABLE default
-0.08525189040952993
0.12244250371401541
0.11161840811445774
-0.09141703380416924
0.06491723304223479
0.005916821188546244
-0.08967292012140596
-0.13259997904657767
-0.06330966729488846
-0.0013949856935366461
-0.014636001345772247
-0.027877263494195392
0.014675548640253624
-0.0016753046416577155
0.02738103148865762
-0.07048916634670752
-0.08091463453779704
-0.05870006768858342
0.001418040898270051
-0.13715796339914277
0.1966903066979253
0.04129819477992121
-0.042017992935530275
-0.1306451176914924
-0.09628612866295408
-0.10651325941987405
-0.27075144575318366
-0.23388015945653043
0.1112847758860934
0.14879526796981288
-0.105780096150426
-0.02690453420237404
0.023232132588427195
-0.04110269280889857
0.000721827465683611
-0.04252696729156792
0.03131399725995521
0.21892151598885917
0.23510504068895421
-0.12493268716973274
-0.20161965260784337
-0.20373610333618186
-0.18004216087331987
-0.02000388463576297
-0.12039785991133428
-0.010765907264954768
-0.033699747310839565
0.03938569186633519
-0.0009110893546055102
0.03824564760734937
-0.011232435901340689
0.04008057433527945
-0.043174712515478164
0.01360283438802739
-0.05937922799032325
0.364553113663342
-0.1155192389765948
-0.028949514771596865
-0.052267760916510475
-0.00675853087483036
0.03619376582867717
0.019302351391306774
0.04825388116825241
0.08463665657594344
-0.02750675500562587
0.07134223907501906
-0.06516785223216966
0.10700737004593534
0.03936673463022224
0.07879064017757324
-0.098293674666104
-0.03680182868893722
0.30862031938067075
0.13141053251144894
0.06607807724616634
-0.03223178093379777
0.057003716786143355
-0.0410071000464067
0.08708958993796723
0.06497232327361492
0.08841188684704064
0.17431950188777606
0.09536782319182921
0.16884019979818538
-0.06400501643841298
-0.05878783407015925
0.01008951066348502
POINT_DATA 5568
SCALARS single_curvature float 1
LOOKUP_TABLE default
0.024369189021154914
0.03414422552120928
0.03660514359390682
0.04082374334852083
0.04460964917718364
0.04750027766258899
0.04959204375927491
0.05109863525757242
0.05211902250524539
0.05273836247583364
0.05241878992476537
0.05049260677877977
0.04648664058120962
0.04015065966076496
0.03217877819006839
0.023746086373217488
0.016086892177370547
0.010567892224505484
0.007906039449466256
0.007912943030201108
0.009934842029380477
0.01284312274985903
0.015756391544755013
0.01833503920879321
0.02024054499708615
0.021133721314901415
0.021072338985232367
0.02029634123944166
0.01933740632298229
0.018789290581112006
0.019077900590866635
0.020215998603895457
0.0216162403182005
0.02285372034388007
0.02294423272809605
0.020869182819724386
0.016664661878198705
0.01106777717954554
0.006873618544566936
0.006297897305742939
0.00974609742618968
0.016139827259245496
0.023142760085105244
0.028457777730551
0.03167954459146309
0.033345902056794
0.03350076206070679
0.03318134486696128
0.032680847823631155
0.0321673220801746
0.03184214240282886
0.03170079165952693
0.03191754999084218
0.03232879764369264
0.03285155539993518
0.033412072809251354
0.033763134933339045
0.03373671338569603
0.03313284786079852
0.031783745081376706
0.023304840201514087
0.014825935321651468
0.006347030441788849
-0.0021318744380737706
0.014153185050567112
0.01764407729026461
0.015688528286612633
0.022030880291610856
0.03534025907784084
0.04841106933301415
0.059291691693889884
0.06801930980286121
0.07410226627516134
0.07743443009765522
0.07871154911520532
0.07766872173242406
0.07409805739479185
0.06829712432403871
0.060374941928985126
0.050969281938548126
0.04109212391145185
0.03163181876803138
0.023319448334717406
0.016921142959751206
0.013208416417874519
0.012333628107849888
0.013811208946073782
0.016596433027126226
0.019351552990975608
0.021330594419829863
0.022240414607307215
0.022192266932237796
0.02157968683293889
0.020627281352280317
0.019451611061267752
0.01780639709411511
0.015250484294905367
0.012436260426841267
0.009999498381575975
0.008416581331354131
0.00790576548591005
0.00784168720601788
0.0075418036832266225
0.006721584328801459
0.005843939550743955
0.005807327740503229
0.007649165352330949
0.01108052904226794
0.015228287207493361
0.019222563391944152
0.021933875863635658
0.02380488356743628
0.025210985879358064
0.02631468365093326
0.02733860937854918
0.028197818289170326
0.02904370852559578
0.02987683757546541
0.030918527112481158
0.03188679353121275
0.03272019120774114
0.033216499597125415
0.0330825840329038
0.032284781236468406
0.023957792927132918
0.01563080461779743
0.007303816308461941
-0.001023172000873547
0.012661589519823456
0.016457338816665727
0.015438468624968575
0.022410523225040137
0.03577216746440964
0.04836515844558579
0.05885682417842815
0.06727908327349096
0.07315564348977784
0.07637414976260894
0.07755828863692475
0.07641941304319855
0.07274372770412955
0.06681895215120179
0.0588077928960795
0.04939102791256956
0.039585665938894884
0.03027327147221828
0.022180976692139837
0.016083022564888638
0.012696021217011896
0.012099143131466438
0.013769724427734362
0.016632796428000404
0.01938519955431308
0.02132249036822738
0.02216206538014881
0.022013572473333857
0.021272853351123736
0.020198046301301124
0.01895514613778119
0.017350096431066785
0.014979280823446756
0.012441587256212153
0.010261350569950855
0.00881425666951875
0.008249069937824545
0.007959732481075421
0.007381284330645681
0.00634441326843258
0.005442293171041594
0.005550781232002854
0.007651197632446221
0.01135639648775479
0.015666155618605057
0.019739237046344095
0.022452000431078718
0.024276623926530943
0.025625422838566354
0.026672350115608427
0.027645940438327868
0.028468082316506712
0.029290568397644913
0.030105625142061054
0.031124568763971856
0.03207517895549645
0.032885609991180974
0.03335377885887457
0.033190453469697345
0.03235817447166345
0.023996318794577857
0.015634463117492267
0.007272607440406677
-0.0010892482366789136
0.025401931543457327
0.03536331318197463
0.03749490147730049
0.04141121653798133
0.04489170656150979
0.04747516678349754
0.04929097321289436
0.050563941884295374
0.05141230271343325
0.0519334712906094
0.05156410661041114
0.049629189505236496
0.04564571102454427
0.03933864038117472
0.03140534960323553
0.023030610482564613
0.015480285611157468
0.010167043715197386
0.007730127211083031
0.007935728040181602
0.010086976982829747
0.01300396624122072
0.015878596021709813
0.018411247474786212
0.020272250998735284
0.021127759140349003
0.021055605144059485
0.020305027626934435
0.019412128421429798
0.01896594751212159
0.019371271253872013
0.020633460065496708
0.02215113225304711
0.023468259390566428
0.02356273416252625
0.021381625569807248
0.016981997687120977
0.011200205936672258
0.0069799544652472244
0.006544623071846182
0.010260323792082976
0.016929022568029962
0.024044741763798484
0.029317687000739043
0.03239941311302555
0.03388373390215623
0.03388682982504714
0.033465118746389855
0.032884946638779375
0.03230918161816988
0.03193508723058877
0.031758679240757155
0.03195468274387683
0.032353885519385756
0.03286068481039222
0.03340769029311078
0.03374320443230407
0.0337014679814777
0.03308612301318646
0.03172391656271891
0.02325303719993779
0.014782157837156668
0.006311278474375546
-0.002159600888405576
0.008721284777205096
0.01388231333890216
0.01673260608951537
0.02631743208454643
0.037736324298443084
0.048161177050901005
0.05685010476875981
0.0638320677412023
0.06872776498167249
0.0714216017931128
0.07222665718718593
0.07075233976792353
0.06674677019468321
0.06042824284978696
0.05216156957654729
0.04279028414773523
0.03334815417632725
0.024699638207732286
0.01759475298428885
0.012837518924111046
0.010836802210307863
0.01138512513559567
0.013791162531293965
0.016870744809162914
0.01955013424934444
0.021283618221981312
0.021836628366838966
0.021320479622067522
0.020147874666771346
0.018710619572668816
0.017367580337172648
0.016107160198641356
0.01460081048101256
0.013185053459579418
0.011954750681563528
0.01087342891480081
0.009885552635697428
0.008563615203850978
0.006814869566097799
0.005078540465186745
0.00442025915536025
0.005396284442162701
0.008695280483457654
0.013412253048505973
0.018119419530410623
0.022270013477568733
0.024814698742009866
0.02634943146251142
0.02739539208413686
0.028160223383715426
0.028887998749971826
0.029526709991235696
0.030231404498315087
0.030958643220903238
0.03186961990922198
0.03273705308855144
0.03344432002347005
0.033791749972177765
0.033507823436689906
0.03253376884816919
0.024059048078200557
0.015584327308231921
0.007109606538263286
-0.00136511423170535
0.010556342574952055
0.017519420107468504
0.02325486157280403
0.031968908864417306
0.04038770206265138
0.04789619170388451
0.05408039470401058
0.05901282601297513
0.062488816363906886
0.06443991519723026
0.06480379647946109
0.06306573759027538
0.058899161027027344
0.05237690312204358
0.04405104575604297
0.034924822287642654
0.026056990818758688
0.018350346489827366
0.012700024393154152
0.009758358764572114
0.009449981102299568
0.011273774646693116
0.014271016166390031
0.017338469782065522
0.01979764319746804
0.02122676087673487
0.02146980396914863
0.020664229212392603
0.019261654481846302
0.017790331705469564
0.016766419101238692
0.016271638736527653
0.015915975890759333
0.015720278957844745
0.015309897651316056
0.014208439411209183
0.012296204541542535
0.009487508461936635
0.006332775014118475
0.004487308226680439
0.00486837643392827
0.007507128554735457
0.012503116408369179
0.017879006614366304
0.022470268851074927
0.026123355246973432
0.028050928015515487
0.029015214806799305
0.029551791030316927
0.029876329344495148
0.03023097671696172
0.030589296248253045
0.031113769048051427
0.031716048563689495
0.03247666775968605
0.03322837468707345
0.033799508307941185
0.03399797272075539
0.03357712869063871
0.032441558912267986
0.023909029679359706
0.015376500446451426
0.006843971213543146
-0.0016885580193651342
0.025109615785130778
0.03501836892007464
0.03724354359255254
0.041245290002397184
0.04481202655721228
0.047482241819127205
0.04937602386585948
0.05071503415667771
0.05161208992851695
0.05216113062754933
0.05180592436496232
0.04987347371387141
0.04588353790319802
0.03956812666408259
0.03162377048741352
0.02323250744384857
0.01565075755252031
0.010278548871844507
0.007777857852047667
0.007927309324924936
0.010042623589571014
0.012957995080446247
0.015843817094584923
0.018389597522977835
0.020263265886839184
0.02112943703090935
0.02106018881520215
0.020302108945313434
0.01939007955339249
0.018914601886181732
0.019286604581442154
0.020513536645776955
0.021997990446523348
0.02329277721311423
0.023386495952038826
0.021235912429786553
0.01689200342115305
0.011161592103048845
0.006948382117941232
0.006472654280284959
0.010111958268821084
0.016703526410297424
0.023787415032604557
0.02907272362953996
0.03219462271597106
0.03373099652811276
0.03377739988062204
0.033384808802261766
0.03282728706919307
0.032269189156167506
0.03190895735823945
0.031742470908136554
0.03194433661965324
0.03234693240642807
0.032858244846531444
0.03340908274770362
0.03374900722149026
0.033711608126449515
0.03309950225414372
0.03174098787190791
0.02326779502519059
0.014794602178473268
0.006321409331755946
-0.0021517835149613765
0.032297736558731936
0.04347719581746981
0.04333138772276574
0.045253980085788174
0.046739557629591276
0.047315330349142204
0.04732020115255572
0.047053552842717276
0.04675137901274927
0.04659304930071299
0.04587046437271076
0.04387315775207533
0.04005774483193392
0.03397902245166223
0.026336122849206046
0.018382833541891803
0.011783892644405386
0.007998766258894093
0.007086968415027749
0.008596754501607158
0.01137789871876321
0.0141770341830535
0.016741377960277495
0.018941032548115345
0.020487174631750933
0.021090625780150675
0.020983656410103923
0.02048132787139527
0.02013951687297982
0.020484292968873476
0.02174074988397156
0.023868920128953
0.02617253588745131
0.027976240509801
0.02800583178621185
0.024984059328862496
0.01914998204094695
0.012385103731502978
0.008074671416848438
0.008745774336392374
0.014422724406115082
0.02274017951273977
0.03059101141881033
0.03547027933483828
0.03748356851705895
0.03761872654235523
0.036517789828162256
0.03536891914637791
0.034230004455764115
0.03322474350591116
0.032519093412276434
0.03210877145932997
0.03216922936358028
0.03249174179920693
0.032892076844130834
0.03334592260465816
0.033574161654149434
0.0334285209298409
0.03273829076638311
0.03129209285544902
0.02288446221281131
0.014476831570173605
0.006069200927535899
-0.002338429715101807
0.020717895455484275
0.029823510711017107
0.03341369630016114
0.03871404215643429
0.04359819219283074
0.0475918069894054
0.05067138268918667
0.05301181146930648
0.0546410485984266
0.0556016488456633
0.05545404712921488
0.053560332606832226
0.04948319085662394
0.04305834854768913
0.03496187748630133
0.026333382541893366
0.01832760074554639
0.012141191683088822
0.008693201717627445
0.007989130037468139
0.009507566181707805
0.012312939771747586
0.015339422559883723
0.018071529176663385
0.0201290968848073
0.02115554716652844
0.021143511888280835
0.020301819834508444
0.019144279550685667
0.01827130186286178
0.018169855348659694
0.018878782518550682
0.019860465667763425
0.020798470800362855
0.020845402098517075
0.019106268814867617
0.015554291887371646
0.010657546457491974
0.006584933538791165
0.005564452813594201
0.008119619056227293
0.013515378967475974
0.020109487536508028
0.025536746477104248
0.029211141382300604
0.03147963199781116
0.03214393952235973
0.03217371299883305
0.03194768341725611
0.03165063353448291
0.031497285020611096
0.031480135252611285
0.0317713394812478
0.03222656937267447
0.032806271707410954
0.03341415505057909
0.033819688031255464
0.03384746841404982
0.03328520121370794
0.031983979992474196
0.023480229368998972
0.014976478745523748
0.006472728122048525
-0.002031022501426699
0.011397401019906503
0.018586932740336765
0.02431984125506934
0.03268121882662881
0.04072455395425221
0.04786335756255681
0.05372481853173217
0.05839011564740616
0.06167865756345767
0.06353132091634425
0.0638419501358694
0.06208127680017931
0.05791182118361568
0.05138439643748832
0.043069038849701584
0.03398569344600034
0.025198025996101617
0.017622588534164308
0.012178570688445146
0.009469934885011896
0.00936484225513162
0.01132679202048202
0.014361680744332238
0.017407569215611887
0.019830843537103217
0.021219306455915327
0.021429160038282335
0.020603272436883088
0.019199368300545343
0.017758875309505154
0.016806958540065094
0.016426462121919734
0.016213472025935243
0.01615238770654824
0.015814760110565828
0.014676348765329663
0.012619994754293455
0.009608992111758623
0.006301135692010043
0.004499671454325606
0.005062483946475871
0.00795238595166164
0.013156550710754283
0.018568954840134395
0.02310210150502364
0.026648438823552403
0.02846899902364355
0.029347474709434867
0.029811516083567417
0.030075380654615222
0.030379488817141025
0.030700002672135088
0.031200481224742418
0.03178691626547657
0.0325284406074648
0.03326530685010939
0.03381927306251938
0.03399957641513768
0.03356291002797518
0.032408688617646814
0.023874871205222907
0.015341053792799
0.006807236380375094
-0.0017265810320488129
0.013130522610774074
0.020730756042644207
0.0262608909834239
0.03397352978638178
0.041337179798978635
0.04780415197512761
0.053076550425547445
0.057252772533297504
0.060196527776800145
0.06186725160555235
0.06208149177414681
0.060284370814919705
0.056117991803278575
0.049591288069228086
0.04130387651594049
0.03230443118075415
0.023667459751403865
0.01634251826225082
0.011289084985032727
0.00900549219958565
0.009263729777608807
0.011459904789853806
0.014540862358898272
0.01753817251709138
0.019892179490661986
0.02120568711780297
0.021358876482507262
0.02050571250830827
0.01911550773188507
0.017750698427649977
0.016945663980275968
0.016780791172746043
0.016825395428545588
0.016998798484566955
0.01677761175292727
0.015553828465625008
0.013219420788501695
0.009830676605041316
0.006278600799574864
0.004583806277147356
0.005504947115969375
0.008874981192452284
0.014433369430033335
0.019892032961712016
0.024296105002846676
0.02762462092709242
0.02923494879303464
0.029949972449560623
0.03027764479915632
0.030428452873229372
0.030638940441512958
0.03088963933744035
0.031346079535278244
0.03190388632931973
0.032610759989235134
0.03332053991122763
0.03384325373844864
0.03399079647143963
0.03352605995018786
0.032338791533248874
0.023805520322750504
0.015272249112252133
0.006738977901753762
-0.0017942933087446086
0.015060973043493683
0.023072074855889028
0.028209184095971063
0.03526684669979349
0.041952058876676766
0.04774541457288537
0.052424131861697414
0.056105593475328897
0.05869834498798113
0.060182338857122
0.06029979600576957
0.058471338427543915
0.05431794908921373
0.04780426110245171
0.03955570299120058
0.030647819618062608
0.022169291225362823
0.015115388241199689
0.010474050805597343
0.008618481440762896
0.009232883732898966
0.011638787373481055
0.014737856724204438
0.017675404467575144
0.01995496708908354
0.021191982016595414
0.021293222377813645
0.02042542668935998
0.019069984078741498
0.01780620448658509
0.017168230398722898
0.017229204947608066
0.017530258491148223
0.017926431078483164
0.017802531241299616
0.016469835845182978
0.013834999012278235
0.010053634969763045
0.006308205717157091
0.00475355163050384
0.0060703641903287085
0.009952642617571247
0.015827478919385175
0.021308215594423054
0.025552923397084253
0.028632658072221262
0.03001204232758087
0.03055349711311456
0.03073850673354709
0.030772317940558937
0.03088667547218152
0.03106602900889203
0.031477858351305385
0.032007241343004256
0.03267944079186684
0.03336187182906464
0.033853100894984556
0.03396800825894719
0.03347590870087136
0.032256503230905745
0.02372723830879419
0.015197973386682634
0.006668708464571078
-0.001860556457540477
0.009680412187398414
0.016372760647644462
0.021991203947077133
0.0311176189274483
0.03998593604503964
0.0479356056173943
0.05450358058332029
0.05975285454186775
0.06345040460419472
0.06551753152143976
0.06594537867335774
0.06423697165358735
0.06007839053584132
0.05356776905594809
0.045234161492715384
0.036059950617627345
0.027098805570010976
0.019240520595913226
0.013351670534575366
0.01013275796562863
0.00957865973806777
0.011229841889269078
0.014170686820965783
0.017258674744377957
0.019758539554216213
0.021235605527815792
0.021520085960188978
0.020743617133278686
0.019350827763549232
0.01785287104790543
0.0167516189988757
0.01612479773731981
0.015597923706179486
0.015236125919240381
0.014730479424538348
0.013663619189529973
0.011915319320585975
0.009343254323919078
0.00638372322939185
0.004500229579970491
0.004678774771469081
0.007029843232482132
0.011770078388069238
0.017091193489774274
0.02173962060535423
0.02550771642899694
0.027554820668977794
0.028617644117163818
0.029238459171126167
0.029633979578455108
0.030048016609579793
0.03045085073011259
0.031003696563077766
0.031624942694354057
0.03240836865981858
0.0331777359742924
0.03376935342307115
0.033989649766126256
0.03358807426814539
0.0324752333153176
0.023945821713886973
0.015416410112456348
0.0068869985110257236
-0.0016424130904049011
0.011431458900717985
0.018629678659182147
0.024360795802135946
0.0327085508135187
0.04073749122523834
0.04786210042919111
0.05371114908108587
0.05836616053357786
0.06164747284855143
0.0634963337168827
0.06380492275566144
0.062043419239214685
0.05787391983259755
0.051346377395550015
0.04303149358947108
0.03394984186906019
0.0251652898282165
0.017594975181866947
0.012158998998128254
0.009459323076529727
0.009361988404474357
0.011329118159486012
0.01436527741915489
0.017410262112538207
0.019832126116072293
0.021219019574389625
0.021427626973722334
0.02060103402927762
0.019197204036704104
0.017758048584725083
0.016809023552436124
0.01643297870010299
0.016225452846193342
0.01616945626617313
0.015834496835931345