# vtk DataFile Version 3.0
vtk output
ASCII
DATASET POLYDATA
POINTS 5568 float
0.0 0.0 0.0
0.06983458116330044 -0.2234766667053497 0.9722043564559936
0.09690396353598532 -0.46217188198991 1.942921536039326
0.08126678683386035 -0.702307573165824 2.9135349135116604
0.022082222534992424 -0.9365334232829129 3.8839139314658206
-0.07621619307458732 -1.1576384830353779 4.85419738182479
-0.2103798967213693 -1.3581606019900208 5.824656541415608
-0.38024919025210024 -1.5348123953900887 6.7941608307325305
-0.5874943536792435 -1.6881798329715352 7.760353291542361
-0.8340603906011959 -1.8211605562698874 8.720312309765351
-1.1215916139271853 -1.9371363137880455 9.671035939050302
-1.4517809203496257 -2.038098907039608 10.609535580333231
-1.8251512915271257 -2.1247775975054863 11.533159622108831
-2.240577594258296 -2.1979243209212873 12.439840681717248
-2.696225646302275 -2.2583428309438522 13.327947914158907
-3.1889477938653066 -2.307060537952574 14.196769800580219
-3.713876255072803 -2.3459628070793426 15.0470266582833
-4.264745414689452 -2.3776514239296476 15.881016466701462
-4.834857788285636 -2.404890421822681 16.702131512518008
-5.418122060844033 -2.430219756012491 17.514018951259626
-6.009167919105437 -2.455713767048118 18.32025393489241
-6.603511671644006 -2.482773016838018 19.12400968188224
-7.197570388813527 -2.512007732921546 19.927899955446
-7.7882599256448986 -2.543100727299979 20.734199587579443
-8.372469712083584 -2.5748035523011965 21.545182852706542
-8.946860121782967 -2.6055580521978063 22.363186408922214
-9.508157183781515 -2.6336743630481276 23.190323085207318
-10.053413326918722 -2.6572268465070943 24.028261638380553
-10.580499927268066 -2.674287741748025 24.877901939676192
-11.088787248845337 -2.6842411519449882 25.7390319695493
-11.579413310860113 -2.687839934540252 26.610394761981766
-12.053739956821916 -2.6848169646472657 27.49073849858904
-12.512769267496001 -2.6739478172910096 28.37909313136686
-12.956991235634856 -2.6540948497540353 29.274789900760844
-13.386475983336704 -2.6235318384174535 30.17734668779949
-13.80119575214431 -2.5811787640418915 31.086309685094264
-14.203422190059975 -2.527744423169614 32.00028926028028
-14.596596785971604 -2.4640212388543263 32.91754227494442
-14.984126151630557 -2.3915292898472593 33.836544945278476
-15.369203825183417 -2.314300216433864 34.75619208171224
-15.754463795814532 -2.236997129392952 35.675756645929056
-16.140795444341148 -2.163093838935712 36.595151099363655
-16.52793660283086 -2.0928395262749477 37.51449110989067
-16.915055962248108 -2.026470378461112 38.43412893957301
-17.301267839794384 -1.9644045555384415 39.35444856843415
-17.685201255431487 -1.9074153499686894 40.27604900398405
-18.065032755858645 -1.858693380917316 41.19982072958243
-18.437688294800207 -1.8210408209726912 42.12702628070137
-18.79972284893998 -1.7981266146405375 43.05890927805511
-19.14769861349412 -1.793521342698349 43.996401496024575
-19.477745254116698 -1.806378395998474 44.94027855962671
-19.786511032639066 -1.8332537477474684 45.89103689352752
-20.071741575123745 -1.8699297249224442 46.8487938618301
-20.332333433173243 -1.9129383787916607 47.81328447309113
-20.567761507472376 -1.959579649843238 48.78405644099425
-20.776833582359743 -2.0073256496006318 49.76079037969478
-20.957877275872185 -2.0528383125770353 50.743211765123746
-21.109551730029438 -2.092583525399799 51.73084285921393
-21.230783505398325 -2.122944778375433 52.723002650255
-21.321407339693767 -2.1414748129381493 53.71871543940491
-21.381631946455595 -2.146138145289092 54.71688939722578
-21.412350646789008 -2.1353531033339075 55.71635927887297
-21.415244499032422 -2.108181846211308 56.71598588336365
-21.39327380916339 -2.0642564426338383 57.714779079028915
0.0 0.0 0.0
0.10654709010991678 -0.12941407639385905 0.9858497423138244
0.19412597999366593 -0.27295470594238724 1.9716113898308816
0.25701377314959706 -0.4208061897238148 2.9586195276978433
0.2891876416937853 -0.566878396789226 3.947370129470576
0.28788558195605424 -0.7054182882216319 4.937726127646149
0.25009775863706 -0.8307674610230112 5.929118918262876
0.1719340288848346 -0.9401082847370769 6.9200452604401095
0.048884729605362026 -1.0330710224070239 7.90808210153043
-0.1228524907342485 -1.1106538967148527 8.890165206345984
-0.3456452780674676 -1.1739828412830629 9.862971877114731
-0.6211139474377594 -1.223289482968846 10.823016598615261
-0.949439543232548 -1.2582287284479108 11.766934790129415
-1.3291386117630617 -1.2789735518565566 12.691812225068123
-1.7573707803178418 -1.2864663837944024 13.595449910915953
-2.229417710290123 -1.2825603445882146 14.477014678112024
-2.7387284670405188 -1.2699813039438936 15.337505422277705
-3.2776399772932256 -1.2517999067643228 16.179671570323176
-3.8384232550824495 -1.2308672615442462 17.007369546469103
-4.414206223050222 -1.2096758785679795 17.82469744828439
-4.999134823066106 -1.1903780598218994 18.63555263083865
-5.588359157018 -1.174626710885144 19.443368562400796
-6.17786668352445 -1.1635809994507897 20.25105592051107
-6.764120109803648 -1.1578357018411354 21.061163266318573
-7.343682821779856 -1.1573188524818327 21.876090745149373
-7.913065947416497 -1.1615080980042864 22.69815236477542
-8.468945053138853 -1.1694152783818548 23.529377903555233
-9.008456559370378 -1.179478581182404 24.371295990176808
-9.52976879942294 -1.1897748600567999 25.224599883882163
-10.032527689861098 -1.198874509910385 26.088978674955808
-10.517718799429044 -1.2058290855932938 26.96335915339371
-10.98670040239642 -1.2091907504399657 27.846560690579654
-11.440685537187422 -1.2069768480080962 28.737567197864994
-11.880687258155193 -1.1970225982561837 29.635508954582697
-12.307602764908909 -1.1765232792249036 30.539568094248057
-12.722746326431027 -1.1433000634963562 31.44871716962755
-13.129082825855866 -1.0970613225255161 32.36126997800008
-13.52926137398113 -1.0379814162550982 33.27580083822046
-13.925417277650304 -0.9671193760656908 34.19124557781333
-14.319383716963324 -0.8878353870987173 35.106944487820606
-14.712673010063217 -0.8045885358678014 36.02258278632779
-15.10575613369056 -0.7210955275913012 36.938287201239234
-15.498507121656157 -0.6392435360898104 37.854282241039826
-15.890397985535433 -0.5614553833402912 38.770999511576264
-16.28085935154956 -0.49031889880600754 39.68886634408438
-16.668621597888492 -0.4284295134779287 40.60854571446185
-17.052004950681305 -0.38077287679582017 41.53090467375128
-17.428518426898613 -0.3506174781015482 42.45682489394109
-17.795358997650983 -0.34058894450642474 43.38705466349483
-18.149260226946627 -0.35291260728332186 44.32225627129862
-18.48621726800341 -0.38630063032388084 45.263184107213625
-18.80200756460673 -0.4371114032295812 46.210651654904794
-19.09333925336253 -0.5002913998369839 47.16518511956456
-19.35806385347147 -0.5712420577079819 48.126895517888734
-19.595018148229276 -0.6458696194609944 49.09554581042089
-19.803265821728527 -0.7206218376591368 50.07076117758683
-19.981761265525353 -0.7919580875213862 51.05211254992977
-20.129628399564773 -0.8563658754985825 52.039020320452856
-20.246172959979653 -0.9102142968691617 53.030744935935196
-20.33165322217768 -0.9508134846207822 54.02625728177952
-20.38682077091785 -0.975977376854431 55.024417248965975
-20.412977359870794 -0.9840542686734254 56.02404247707543
-20.412081422535955 -0.9741085133005715 57.02399261545552
-20.38730081783594 -0.9459145052142611 58.02328787689667
0.0 0.0 0.0
0.13717420663833416 -0.047612755212851576 0.9894019721903655
0.27531732171825085 -0.10913889048610059 1.9779013472201905
0.40364965208297243 -0.17794367584905424 2.967242903253453
0.5117105826978031 -0.2490246958580059 3.9588427841878673
0.590839860736202 -0.3179672337318117 4.953320277059698
0.6331256807098257 -0.38060545732688544 5.950460368708816
0.6316389913631713 -0.4343141607973867 6.949015907938509
0.5797538507174878 -0.47768978531024453 7.946726531004285
0.4722389154136932 -0.5099192660830482 8.940407465336698
0.30604879364528564 -0.5300851665462046 9.926294974074438
0.079430487437182 -0.5368519688411956 10.900255113750632
-0.20778581086367276 -0.5289359635377827 11.858088154969398
-0.5540628270516201 -0.5059883181632426 12.795939760305625
-0.9558101662552796 -0.4690337827821064 13.71094437109048
-1.406992683708357 -0.4206050796414219 14.602061084353572
-1.8996644508972629 -0.364165932563007 15.470444152182523
-2.425040054002838 -0.3032498633995384 16.319131201794526
-2.9745837577720335 -0.24086801643332278 17.15226397801733
-3.540809021111726 -0.17954348088309813 17.974230067643568
-4.117479573284695 -0.12152496459561646 18.789144128158124
-4.699455140139131 -0.06868660413257022 19.600631988355698
-5.282381198171476 -0.022644556392529602 20.411851650781834
-5.862359935429013 0.015255080223911865 21.22560117113407
-6.435682135785235 0.044115298247585644 22.044422728247905
-6.9986895519743095 0.06360965863444301 22.870644622916167
-7.54793570328794 0.07416238584045343 23.706238606388812
-8.080541853667478 0.07707711824189145 24.552596800602654
-8.594858881185916 0.07431278706106192 25.410192482540083
-9.090753044166492 0.06788936885502483 26.27855169324746
-9.569140178019833 0.0599851965235223 27.156665167818566
-10.031420264186123 0.05300373962128324 28.043371647547687
-10.479011989462675 0.049573324053825196 28.937603093937824
-10.913414316343518 0.05274628406832815 29.838316450519848
-11.336227146720306 0.06623788461697078 30.74443304742303
-11.749750979881734 0.09310424767796066 31.654529876306285
-12.157267956281148 0.13441567668693843 32.56679260150091
-12.560757121834557 0.19057179890772447 33.48005213921083
-12.961426854565056 0.2609916412170232 34.39356448783169
-13.360110530445102 0.3429319935252795 35.30698504006947
-13.757485619014714 0.43201544530090574 36.2203070958658
-14.153676551507406 0.5241782693917291 37.13383802520874
-14.54845179501625 0.6163907948224264 38.04797661276876
-14.941418493627523 0.7043568650888824 38.96331214920577
-15.332426395796046 0.7832182314468477 39.88031471481719
[...]
CELL_DATA 87
SCALARS quad_param_group int 1
LOOKUP_TABLE default
3
3
3
3
0
1
2
3
1
0
0
0
1
0
0
0
1
1
1
3
2
0
1
2
2
0
0
2
2
1
2
3
3
2
0
0
1
1
1
2
0
3
3
2
3
0
0
3
3
3
2
1
3
2
2
2
2
2
2
2
1
1
0
1
3
3
3
2
3
2
3
3
0
0
3
1
1
3
1
1
0
0
0
1
2
1
1
SCALARS single_component_feature float 1
LOOKUP_TABLE default
0.14713971465023434
0.0726733260454017
0.00806105266016674
0.05828610730248543
-0.020155713416289765
0.026488393530556875
0.13818804716226435
-0.007131688179876583
0.02021896496275545
-0.10899339069115063
-0.09736591457732427
-0.07868742874064986
-0.10931014493359309
-0.06268720567439971
-0.08582104994762735
-0.13270828080354952
-0.13632972121857725
0.03788143662826694
0.012411578249279132
0.2268668710666898
-0.005361456870372011
-0.1117103023267661
-0.0013657903591284964
-0.002898582573195696
0.05078537528424436
0.017976331186320416
0.06492987112181685
-0.024647367254748254
0.04921979825624122
-0.016700543489540948
0.03269730805587791
0.036844234470554654
0.04917661757703624
0.020946593545676583
0.012102299733611363
0.056534440240669864
0.11965805907542586
-0.04165408905585382
-0.10266900246799987
-0.07240655546820171
-0.11807496713122259
0.018125364776707675
0.030472586594468748
-0.01728372518392579
0.1597952721859869
-0.19793733122594412
-0.2554088558236685
0.06003491619069261
0.028265432915847113
-0.0055573345574427
-0.03321202995825883
-0.08027029312715933
-0.029452773877629623
0.0406138858288051
0.024344318522532
0.17085938273535672
0.02868060548393553
-0.010485542023938747
0.02375694176385898
0.15877551085422026
0.3074614474368026
0.2660738752070824
0.09250099975875752
0.02931960895480258
0.015088117840114962
-0.009539417147101645
0.01795394913610112
0.012525380883307985
-0.020620672292343236
-0.08965243530670068
-0.007348135853345039
-0.015751115035568183
0.14779667854710427
0.06038986769591738
0.0291246929150262
-0.0409538919619456
-0.07561455236142474
-0.05956674972900437
-0.1957127965357064
-0.0796333278621224
-0.11019409861533806
-0.11468317831269322
-0.014062464227302438
-0.04165176718547872
-0.13727722661028835
-0.009994451480128744
0.007498104441521922
POINT_DATA 5568
SCALARS single_curvature float 1
LOOKUP_TABLE default
0.033003711220619666
0.043300415620167315
0.04228687230738468
0.04234407973639225
0.042397088429322285
0.0432629255937774
0.04424870834795209
0.04521739931408705
0.04613807005940425
0.04678333061680656
0.046980157508724016
0.04612053647851679
0.04377566543226457
0.039820101735132764
0.03420080254389291
0.027405202025558194
0.020203879946790827
0.01344561455560987
0.008102031534707697
0.005192424606318643
0.004792239151883838
0.0067159283355602215
0.010211130769648727
0.01404289616831786
0.017678409647180943
0.020437681107317387
0.021736249629451695
0.021706965213246197
0.02080786987735023
0.01972376463894377
0.019246231049863186
0.019295783310727323
0.01891344465037794
0.017733434213234884
0.015511217886303521
0.01186754069483495
0.007562249648662144
0.004932276633910684
0.003223224993555333
0.0028541990293088405
0.003913466372504806
0.004448758184334903
0.005884396622789549
0.00831791082838251
0.011894481052507028
0.016404569262576673
0.020489760810301856
0.02367879168052529
0.025596856802812026
0.026236262603306127
0.026326121005345503
0.02648812938386027
0.02704986302891832
0.028064941736187562
0.02956006675688902
0.031048766127342392
0.03225122330545516
0.0329877618349541
0.033016533030431214
0.03226442639783081
0.02389648621262089
0.015528546027410974
0.007160605842201056
-0.0012073343430088618
0.019885826384326184
0.02846709130292177
0.03225219241368826
0.03682979349669963
0.04108402160621196
0.04533679282611434
0.049076070727345836
0.05220214483952554
0.0545011457943741
0.05579381620815784
0.055991979416422775
0.05459355186712437
0.051251265324768536
0.04593421393637729
0.038891063733633116
0.030872118428559744
0.02280140015264168
0.015576473599579723
0.010164928410427782
0.007274481581909702
0.00687470093086338
0.008611013678050132
0.011616072452331198
0.014864118264492809
0.017789221781082845
0.019875461201757236
0.020772698324325125
0.02055570649878086
0.01963945129053381
0.01858550490710378
0.017974807594653232
0.017791225350551675
0.017360894240052358
0.016600054195114917
0.015250140807320274
0.012910647921827667
0.00989645829790253
0.006384229551201042
0.0036883395242995206
0.0025660136166019225
0.0032858038154791676
0.0056542715096982
0.00901172341926218
0.012740914541569073
0.0167003620982822
0.020823226178273126
0.02394687043020773
0.026207125776390925
0.02759625772347365
0.02817843923422378
0.028484640785284038
0.028800229315880305
0.029365882941464985
0.030179212296462483
0.03131376617054914
0.032446061067262215
0.03333209175557304
0.03378412218518395
0.03356051068523874
0.03258233164874702
0.024060669080544942
0.015539006512342864
0.007017343944140785
-0.0015043186240612932
0.01168521888486525
0.018970936680873934
0.024840891127376263
0.03294421007155878
0.040662301930501875
0.04757517094703113
0.05328876052103487
0.057854115507338266
0.06107596949312749
0.06288082424441852
0.0631785539151474
0.06145152698968687
0.05736576277805058
0.050966804059646424
0.04278479874278267
0.03380620624288222
0.02507887847628593
0.017516481244222247
0.012040815938500546
0.009271234029115536
0.009093544831479429
0.010995224759695228
0.014002305826968596
0.017055699398074074
0.019525996803309777
0.020993273500234125
0.021292327052233353
0.020552792439726013
0.01922282919809213
0.017839313264352116
0.016923608398478684
0.01654481822340077
0.016272923973497912
0.01609853687846377
0.01562636201399068
0.014358593521294635
0.012226377942645686
0.009199871480561696
0.005950030454746421
0.00421947459310221
0.004769051399534847
0.007549530120118352
0.012539160104687933
0.017741373430473068
0.022211609123612783
0.02584866430827032
0.02784739799412758
0.028914545318139435
0.029512060337032988
0.029833930846459394
0.03015741594072977
0.030490975573217394
0.031005953006901555
0.03162112456645143
0.032410619363641736
0.033195466855400584
0.03378965904253491
0.03400223029239047
0.03358958695737001
0.03245519175848445
0.02391641885832048
0.015377645958156508
0.006838873057992537
-0.0016998998421714345
0.017600017878771107
0.02587035591918509
0.030441714514709003
0.03587329838165452
0.04092838830114011
0.04580897086784102
0.05002972300505076
0.053512299436763645
0.05603492010955426
0.05744065229694409
0.057649467907065134
0.05616461552820651
0.05264583433061471
0.04707933838182041
0.039774712564677524
0.03153389435562054
0.023309285909272216
0.01600450846839338
0.010579141486149045
0.007712480534414327
0.007351473205016712
0.009104260097412201
0.012080466990404713
0.01525815515191851
0.018063056091445054
0.020007160538102326
0.02078514423118706
0.02047643929985693
0.019497850316202048
0.018398763152467818
0.017735554586029205
0.017507871458253697
0.017097558427651465
0.016449754182540695
0.015283542248024078
0.01318302982295196
0.010379168226954883
0.006986520984055014
0.004120987338522616
0.0028641354603746137
0.0035411575984041874
0.005984700378288704
0.009734184699766302
0.013765153803388157
0.017824353846195667
0.021850607134818515
0.024745789618764703
0.026770251438151094
0.028009404463258544
0.02855084472162412
0.028875291627265518
0.0292046294666936
0.029763405778642556
0.030534065649429502
0.031593756593892484
0.03265125971129797
0.03347327287954969
0.033870950806418554
0.03360235548148492
0.032585682500683985
0.024050859987478235
0.015516037474272486
0.006981214961066736
-0.0015536075521390136
0.010814605488613354
0.017640110162015176
0.022684564632819447
0.03165345135170303
0.040703512314495476
0.04861063423117222
0.055019462697606915
0.06008785199133669
0.06365993274301349
0.06570349659957367
0.06609377303240327
0.06427569545869272
0.05990772088416893
0.053068805795199916
0.04441838952933329
0.035050139090764765
0.026063272798222674
0.018369805292493945
0.01286538149259116
0.010153172418180171
0.010097603542164543
0.012129354546055597
0.01522770632903865
0.018289332931910946
0.020636727807510538
0.02186457209648533
0.02186903017000847
0.020826207327344345
0.019217234583491335
0.01759095044284399
0.016486849087264624
0.016025464311699725
0.01587553646616865
0.01602439924220058
0.01599118912555208
0.015211725767759211
0.013445017546533666
0.010609400489720743
0.0072724264066478875
0.005251551031874648
0.005714210419699775
0.008708004175472552
0.014300379739918215
0.02023382558067749
0.024975712454474303
0.02836104700163028
0.029794457615420225
0.030238565231680187
0.03039885801901453
0.030545436688045897
0.030823523613406095
0.031128916750551346
0.03160576686551461
0.03213021818061534
0.032763797731022434
0.03338934084465371
0.03385407775831228
0.03396719268610733
0.0334837340429146
0.032295641615090596
0.0237810044194546
0.015266367223818605
0.00675173002818261
-0.0017629071674533855
0.013322088024294078
0.020947692415038098
0.02672203156377857
0.0339360619198435
0.040709293583107854
0.04691058966087985
0.052112874352806426
0.05630975049619409
0.059288008114293585
0.06094394203716099
0.061198600739769626
0.05954901876063445
0.05566200327430144
0.049561335398473384
0.04169479587898992
0.03298027778660234
0.024431249389122466
0.016959685825982437
0.011502737227939685
0.008696109044304014
0.008444600464296488
0.010277473643371279
0.013251691924092621
0.01632923528823217
0.018905663983507636
0.02054204894521492
0.021025671511714396
0.020462247609511795
0.019284116802098152
0.01802746335660958
0.017216849838271018
0.01689294364890626
0.016558241763855057
0.016195613267466918
0.015457694844427668
0.01388193809578189
0.011510563769537357
0.008357144535263053
0.0052026605427194055
0.0036493645296544227
0.004245720350083682
0.006891674635482779
0.011460012223881025
0.016212176442295594
0.02052051877115272
0.0243094553218527
0.026654220928984985
0.028096054667740733
0.02894987114475117
0.02936621479902521
0.029701879042305465
0.03004191410986875
0.03057654253329171
0.031249787135343772
0.03213975439645502
0.033026496632447756
0.03370486480365188
0.03398432918039983
0.033622011612901195
0.03252763484970013
0.023982944512140454
0.015438254174580779
0.006893563837021104
-0.0016511265005385717
0.03136816559102619
0.04145373823400302
0.04104521060200187
0.04164488169397404
0.04219947077963651
0.0434749060714196
0.04480682511657212
0.046059593744048034
0.04716765272688076
0.04790051313401852
0.04809616128243118
0.04716561612273664
0.044694390002042374
0.04056934816647788
0.03477275335173821
0.027823532970621918
0.020511148140947077
0.0136910218897107
0.00833893945617067
0.005415680847830964
0.004991342627702318
0.006864617146693443
0.010268263760446166
0.01401546683678284
0.017564116217857476
0.02025363820439447
0.021527144871197883
0.021503159778877515
0.02063001630825454
0.019572690870416153
0.019091120124811563
0.019112232126768196
0.01871015416304061
0.017564695838037866
0.01544007716010439
0.0119597525773504
0.007805043010590501
0.00505043599875106
0.0032181616759916166
0.0027527408834731853
0.0037833059036778876
0.004553145597905788
0.006204616667709256
0.008769432243470843
0.012380134640940422
0.01685383391133346
0.020843629563418703
0.023947258758496896
0.025823526511742502
0.026469150974177028
0.026595074991433685
0.02678236071299722
0.027347989646789382
0.028340812526924563
0.029795409034951217
0.03124430628154993
0.03241032582139229
0.03311269150080004
0.033109770465026556
0.032328528100056424
0.02393486599409741
0.0155412038881384
0.0071475417821793875
-0.0012461203237796245
0.010965424714840102
0.0179935189152881
0.023540561713659796
0.03221163223872863
0.04066763167680423
0.04813130101712407
0.054232635092545556
0.059077751666672416
0.062491224496156766
0.0644227344617879
0.0647661421613349
0.06298585416224513
0.058744741376739865
0.052106324037977145
0.04366989904640967
0.03447930308697566
0.025610226083614584
0.017976060595286086
0.012484892143123066
0.009746215240339232
0.009633188826591248
0.011601568299915375
0.014652054752274567
0.017703298550357887
0.020101411061400856
0.021436531165473553
0.021578331427376522
0.02068014256777878
0.01920662808265705
0.017699541338759877
0.016686482016704522
0.01626298916107764
0.01605295712264286
0.016047162994367824
0.015806039294116173
0.014797955489386115
0.012861670862685174
0.009937675104823195
0.00663578995670646
0.004752478382829997
0.00525850116628557
0.008153806633012694
0.01347129636306835
0.019061115578431667
0.02367412503169126
0.02717844121922968
0.028877921368852845
0.0296167891310382
0.02998546426577
0.030217501023121127
0.030520559433842298
0.03084170215071676
0.03133735693522257
0.03190392353904893
0.03260972252144065
0.033309230937216154
0.03383375559457808
0.03399228783932681
0.033540545113026655
0.032376077464573834
0.02384815555445075
0.015320233644327663
0.006792311734204578
-0.0017356101759185075
0.012677652075724818
0.020184494174278388
0.02605258589398584
0.03358679663027083
0.040686702795116825
0.04713507332337695
0.05251626174962154
0.05684216992832185
0.05990480544954812
0.0616109231479451
0.061878775500896176
0.06020129994603124
0.056245419653703735
0.05004231544753863
0.04206760406009688
0.03326238512699621
0.02465190455118773
0.01714896728856196
0.011685671799703685
0.008891550070890224
0.008664487601062705
0.010519148309509651
0.0135019698926659
0.0165685811076716
0.019106647605234665
0.02068452858925075
0.0211062657984339
0.020485068990387836
0.01925812335217239
0.01796118413987817
0.017116426056952995
0.01677376946296293
0.01645890848145714
0.01615837854120224
0.015509237222934453
0.014037635028977214
0.01174812972568109
0.00863847248236304
0.005446231501237678
0.0038333862921220638
0.004414263696942853
0.007105051313479195
0.011820766320512882
0.016723506311639734
0.021085517055200613
0.02482392784295782
0.027053110354999885
0.028370426419345198
0.02913970472128474
0.029525703526081536
0.029858772330500362
0.030197657235757056
0.030726066020161064
0.031379670803492944
0.03223560182614465
0.033087893703813806
0.033737678550800745
0.03399423183283082
0.03361444615168692
0.03250602632139449
0.023962424691623917
0.015418823061853347
0.006875221432082777
-0.0016683801976877938
0.017476598937356848
0.023466013782350505
0.023388522113621173
0.030335471906877326
0.04165541472181535
0.05174652093204619
0.05964826894573636
0.0658864893480024
0.07044804932154092
0.07336600502841517
0.07427650226461624
0.07240181031518599
0.0673317420269823
0.0592494330164513
0.04924249846200879
0.03876121366894475
0.029059380707651898
0.021015758939509313
0.015427145763053731
0.012886912454567205
0.013248073151902476
0.015825155479913793
0.019465068272633466
0.02286819369281608
0.025139862233897185
0.02580769417974953
0.02485878175658269
0.02266703432131611
0.019873484762010223
0.017133791619582544
0.015233891186475104
0.014526963519376832
0.014953625289257252
0.016442514462385583
0.01814019787339839
0.01916730648331434
0.018721842310641012
0.0165848051924477
0.012995233007199564
0.009772389300920784
0.009671381427230064
0.013208911540587768
0.02067550062949223
0.02920617582538555
0.034973621954591305
0.03743243584918969
0.03684580757496083
0.034986183192157044
0.03345076498871161
0.03281817995455435
0.03274662651174756
0.0328204431017001
0.033114577767173796
0.033343930398977026
0.0334808515378084
0.03359043380603903
0.033652990615328324
0.03348416639621966
0.032831725503291845
0.0315361700419297
0.023185434772170648
0.014834699502411598
0.006483964232652548
-0.0018667710371065016
0.01616513648599033
0.0222051771153715
0.02282787005688167
0.03020998515850483
0.04146809898310906
0.051363237973229774
0.05912677672300823
0.06524265564551797
0.06968113499867275
0.07247283726988818
0.0732952692835694
0.07140791100967213
0.06641316341196488
0.058480844536384205
0.04864108434333293
0.0382958295071008
0.02867904470465453
0.0206758581891872
0.015097250385301231
0.01253559864986969
0.012840895642410635
0.015337415118991064
0.01888772716653554
0.022221201726115455
0.02447666645865432
0.025199990662877016
0.024375177217551478
0.02234697682293062
0.019731378749792257
0.017165201691029114
0.015385652691059005
0.014709407347894152
0.015044446722550868
0.016326996819397692
0.017762620876496073
0.018522533941047258
0.017880462470698515
0.015638540994006054
0.012092660004123772
0.009059746583034564
0.009066005044751564
0.012552206421443052
0.019770439342666965
0.027937460740884535
0.03355713804366448
0.036147728150998884
0.035843804264713584
0.03431230252768447
0.03302410011950955
0.03251200672084605
0.032503528761483644
0.03261975694370478
0.03294313636804704
0.03321171495968406
0.03341356952438355
0.03359124413854896
0.03370539164492312
0.0335703679198596
0.03293523220950542
0.03164850243728375
0.02327107856131405
0.01489365468534435
0.0065162308093746485
-0.001861193066595053
0.014244030857523739
0.020403432945939527
0.022159447860594417
0.030205209790459184
0.04120295206174548
0.050725187043877844
0.05823226050611036
0.06413391126179054
0.06837150609926948
0.07096795641685384
0.07166136388688085
0.06976624947105507
0.06490304023814926
0.0572198592586624
0.04765524506408489
0.03753453162880617
0.028059645493289327
0.020124819873625296
0.014563079412683573
0.011966307051479382
0.012182392942943076
0.014554680539295763
0.017972029217238138
0.021208703033947465
0.023454289041711564
0.024278088163967027
0.023653727558676455
0.02188091568783153
0.01953779978876387
0.01723363859040058
0.015637738868653786
0.015011766511614358
0.015209706427047272
0.016181314351040445
0.01721987583198325
0.017572076103434184
0.016631493519549463
0.014230600925551314
0.010745661412273757
0.007995041115519698
0.008150289150130809
0.011539341686122922
0.018360947410600587
0.02595832863296704
0.03134877015780072
0.03414475494209243
0.03428418526770155
0.03326394437968645
0.0323576868390523
0.03202787060290388
0.03211001974053718
0.03228685357496656
0.03265388366645573
0.032985148923191696
0.033291521509015945
0.03357843645777006
0.03377629899045413
0.033697641206765695
0.033093356427328295
0.031824041669454246
0.023406209444507848
0.01498837721956145
0.006570544994615051
-0.0018472872303313473
0.01751335572324529
0.023501644153762363
0.02340517293076827
0.030340128962739424
0.04166073992317289
0.05175679725070245
0.0596620872753223
0.06590352776618714
0.0704684216531084
0.07338986675350677
0.0743028449813518
0.07242858153273181
0.0673565318881874
0.059270192043117946
0.04925874759884877
0.03877379711424073
0.029069682185841224
0.02102498165073786
0.015436101724949174
0.012896447242629512
0.013259132754172929
0.015838443033593018
0.019480867989140165
0.022885989940554848
0.02515820679767812
0.025824602549624938
0.02487231814431969
0.022676068861869972
0.019877585255864465
0.01713305606316319
0.015229814351198233
0.014522057624589557
0.014951282556021942
0.016445932850069327
0.018150918825611956
0.01918545578236594
0.018745469287397624
0.016611354790769136
0.013020524366279
0.009792347975859171
0.009688256788693101
0.013227082048791921
0.020700453056766172
0.029241131192800154
0.03501265592427568
0.03746783896514105
0.036873439545272384
0.03500477348156216
0.033462521521847914
0.032826579952268876
0.0327532375152143
0.03282584885067925
0.03311916470731866
0.03334744668829506
0.033482600752750065
0.03359032770842057
0.03365148521373494
0.03348175431771174
0.032828862348947344
0.031533087762649764
0.023183093203808763
0.014833098644967763
0.006483104086126762
-0.0018668904727142388
0.012831143680034188
0.019129821015484116
0.02185228707934387
0.03039650235474282
0.041014174211661696
0.05016052468628552
0.05741270429020063
0.06311220839083889
0.06717403813662685
0.06961066208377001
0.07020594102422645
0.0683166287973288
0.06357638709178522
0.05611454377739579
0.04679204718144107
0.03686963033470651
0.027521547859790812
0.019648615982303937
0.014101986298691636
0.0114744232566361
0.011614781399275218
0.013886115859254809
0.01720086684715572
0.02036985065034257
0.02262305192808023
0.023544020721880794
0.023092044614119716
0.02153016047598576
0.01940658064537651
0.017309870394751733
0.015861362233109497
0.015279370219514442
0.015369812888031808
0.016094454786025135
0.01681530744562108