# vtk DataFile Version 3.0
vtk output
ASCII
DATASET POLYDATA
POINTS 5568 float
0.0 0.0 0.0
0.18622675253361798 -0.02705535398014819 0.9821342089866291
0.3806278494581389 -0.07150917749235336 1.96204852722557
0.5669588957403094 -0.12491057631263455 2.9430832013301242
0.7314091636234493 -0.18140451905717625 3.927849439493446
0.8626182890668014 -0.23676187471978744 4.917657364585195
0.9505258264246764 -0.2870832586775214 5.912514149852427
0.9869124480293662 -0.3298553505154902 6.9109361858312015
0.9644475005956229 -0.3637850405877313 7.9101078939316665
0.8778470858400474 -0.388265817699752 8.90605019131448
0.724726174840829 -0.4022996046192907 9.894157998914169
0.5042198846177363 -0.4039989113827157 10.86954207112807
0.21736317977713526 -0.39133794602369876 11.827431903438743
-0.13263893180796404 -0.3634718393906782 12.763766246495265
-0.5406060009510383 -0.3213044174654287 13.67578860314174
-0.9994129747387869 -0.2676511487038066 14.562703191788765
-1.5004612085899272 -0.20648328918900102 15.4259581716858
-2.034474541988773 -0.14177479005566046 16.26895435785283
-2.5924598510859567 -0.07667900251067462 17.09624809847681
-3.1664826608531667 -0.013562625302480563 17.91265126897229
-3.7498940426053675 0.04562558027544608 18.722668500864582
-4.337190256143715 0.09923673113456882 19.530263078649178
-4.923744574345291 0.14558880046622505 20.338845490941058
-5.505488211760462 0.18301226383666155 21.151356306079126
-6.07864279389883 0.2101694891237367 21.97035344288029
-6.639594518815788 0.2263794732059544 22.798043239077355
-7.1850849943174495 0.23189431522654355 23.636142116092746
-7.712547523706205 0.22791403111707656 24.485711087647864
-8.220621296390913 0.21634948175602262 25.346947003473492
-8.709430253013059 0.1993103896882694 26.219171443206452
-9.180326500261133 0.17948286452411397 27.10113719853573
-9.635245151239257 0.15988239381885092 27.991454469254645
-10.076030830583676 0.1435210617859581 28.8889177229308
-10.504518789930993 0.13381028438892248 29.792413029778995
-10.9224538793749 0.13519744561193872 30.700888861485737
-11.331855400134732 0.15240941209035572 31.613080805656196
-11.73545595344447 0.187759738000885 32.52733293052444
-12.135025766583917 0.24224821108781955 33.442414878072505
-12.531601330864394 0.31543387572455517 34.35749502773553
-12.925799047243789 0.4038946922572815 35.27225338071168
-13.318223235805885 0.5018804093928106 36.1868035736857
-13.709146291777666 0.6041917905800921 37.10152295447373
-14.09851629123113 0.7074021889362843 38.016803576576464
-14.486076364257432 0.8073978619826597 38.933208539007296
-14.871745881919816 0.8994293912610575 39.851244061612356
-15.254648330943613 0.9780853504163415 40.77167817366
-15.633464213302712 1.0360965653157468 41.695330286859765
-16.006788273202424 1.0688846017392322 42.62245168719927
-16.372667858067206 1.07467117911862 43.55309589682044
-16.72824677094694 1.052605401730198 44.48748165130491
-17.06947254120956 1.0045089743110334 45.42623172847039
-17.39150455366374 0.9343746947374049 46.370359138189755
-17.690411078397844 0.8480510887838865 47.320729131679954
-17.963066627722885 0.7509293117796836 48.27792624401043
-18.207314730516586 0.6482817567652442 49.24219090878418
-18.42206356826531 0.544727351993087 50.213354860925044
-18.606661387940054 0.4440717171833364 51.19100105876574
-18.760334847798877 0.35004867108450066 52.174639272001336
-18.88254988883988 0.2669501950045229 53.16365804180125
-18.97408376614796 0.19814557729541618 54.15708014437742
-19.036201023675652 0.14610608316640392 55.15379140515861
-19.07046354122609 0.11257575907644626 56.15264164281064
-19.07891232167077 0.09854621689736975 57.152507528844986
-19.064826695272444 0.10422096992471888 58.15239221835025
0.0 0.0 0.0
-0.0008899027628662681 -0.06915748668086655 0.9976053578991337
-0.01518198496999712 -0.141718281867706 1.994866942132698
-0.03841761603985172 -0.218061833400463 2.991677740423001
-0.07227694126370388 -0.2964954207101871 3.9880219171396183
-0.11938695529197307 -0.3728136288613175 4.983991885403149
-0.18301815703582647 -0.4427776603166119 5.979509893511066
-0.2675154937719795 -0.5034012591618392 6.974087683001436
-0.3785502373591394 -0.5522904791206936 7.966700966152708
-0.5220950313350776 -0.5869751491209937 8.9557367924954
-0.7035767916689217 -0.6056388951879511 9.9389539787004
-0.9274854899323308 -0.6077427069024992 10.913561832566895
-1.1976224882084208 -0.5937738019089486 11.87628239007861
-1.5174815818326968 -0.564735319622681 12.823302414561917
-1.8879561092780093 -0.5221663585070225 13.751169058031605
-2.305697879630065 -0.4680763357707468 14.658123347256547
-2.7641082424956873 -0.40469117303922875 15.544600792182761
-3.2554557543394274 -0.3343917792353682 16.412722683299314
-3.772351758422198 -0.25983283324244055 17.2655177844436
-4.308526281745207 -0.18403702716908257 18.106215040488266
-4.858973352982716 -0.11021600501487863 18.93781499145878
-5.419684499009463 -0.04105889133248486 19.76293334924055
-5.987080134218429 0.021754567868558755 20.583979427417052
-6.5576351511605395 0.07745328898145912 21.40334785804431
-7.1276781729269985 0.12596950588098882 22.22352901488292
-7.6932454158410355 0.16762181876289825 23.047178684690543
-8.250146619211005 0.2031018266685488 23.876999278990354
-8.794413371723659 0.23395615894011473 24.715343905196907
-9.32351048428722 0.26233315458083273 25.563430570341044
-9.83664303743734 0.29024384164708306 26.421286022293835
-10.33356159610606 0.3188995346349878 27.288609951002126
-10.814199424316566 0.34929983005403487 28.165002043693246
-11.27875681142769 0.38314848858990547 29.049897914627113
-11.727849767183649 0.4226774802261668 29.942508118417432
-12.162918075656874 0.4696806686364574 30.841677883946453
-12.587477061640197 0.5230819162487912 31.74550196759009
-13.006528929642414 0.5820302384973179 32.65154867015455
-13.422323787240758 0.6463776320197314 33.55872784173073
-13.836057312875441 0.7157124523195222 34.4664818020415
-14.248684554575977 0.7890306415686232 35.37442629513116
-14.660818163548901 0.8649349537922145 36.282382474547774
-15.072103191368361 0.9417281508399769 37.19064864191213
-15.481690474280791 1.0165003121897453 38.09985014958988
-15.888862501174609 1.0828292289911303 39.010790002330516
-16.293566780798763 1.1342152853343022 39.923792696339355
-16.6948750373055 1.1669685577459863 40.839149952499945
-17.0912839797901 1.1746764433820858 41.757191639362404
-17.47963808035925 1.1563008653363056 42.67851863381259
-17.856464184977163 1.1134679118684219 43.60381179004779
-18.217427069444376 1.0475641516067722 44.53406040757995
-18.557697880525602 0.9605887159343078 45.470356861015354
-18.871271596870198 0.8563869397652158 46.41418603743503
-19.15291987490545 0.7417789518837031 47.36683458574313
-19.39984933274348 0.624042136983599 48.3286889849476
-19.611853950658706 0.5095757157944012 49.299230833814896
-19.790001968038787 0.40264014061137 50.27740672120112
-19.935091243104935 0.30615721431747767 51.26210979685111
-20.04821166452845 0.2220822790839101 52.252127562107084
-20.12992477274667 0.15134181516989087 53.24626978267241
-20.18048582291532 0.09517581604942886 54.2434101743669
-20.201110549925776 0.05525689216493346 55.24240021443319
-20.193812830812657 0.033078859872240046 56.24212761636802
-20.161221972840817 0.02935335091244251 57.24158944983624
-20.10662040855803 0.04390896239777775 58.23999157491018
0.0 0.0 0.0
-0.05814829748338368 -0.08153166307025028 0.9949730465780382
-0.13693868714258828 -0.16221041126955657 1.988594208835739
-0.22547220221409814 -0.2451046942759931 2.9812121386324617
-0.3216899473383398 -0.32987067239545276 3.9729564980702445
-0.4254521834491928 -0.4124073214585754 4.9641280775249355
-0.5378408920132848 -0.48843058983980503 5.954879933870373
-0.6618970823176801 -0.5547890173799218 6.944933781265333
-0.8027183996973634 -0.6086887210142603 7.9335005106870655
-0.9664242091755274 -0.6470100258280734 8.919265130431791
-1.1592384478318687 -0.6675895711506618 9.900284575542686
-1.386621245618009 -0.6702253299470974 10.874086463015962
-1.6537300317729864 -0.6561614725043544 11.837650215070099
-1.966045841464322 -0.6270356199881536 12.787181952155306
-2.3263226553110736 -0.58464350730323 13.719063664706068
-2.732387105712394 -0.5307508946862541 14.631317603270102
-3.1782831066282475 -0.46702522771282684 15.524131019240114
-3.6568048358503655 -0.39534195576562003 16.399275843360797
-4.1611202805876015 -0.31819242247555246 17.2593420511103
-4.685536965112865 -0.23878526717524848 18.107092984273244
-5.22563070031245 -0.16069992860438229 18.945067588362434
-5.7779474487638085 -0.08694203277076831 19.775432557627344
-6.3393098577522595 -0.01920996472813466 20.60022623651519
-6.906399279327151 0.041979878721679575 21.421606410975496
-7.4755815070663845 0.09694106485986057 22.241978801810347
-8.042763366571142 0.14630930442436652 23.064090421464897
-8.60342482380027 0.1909329154427184 23.890932282837067
-9.153100002587987 0.2324841150070038 24.725276753448252
-9.688831813505002 0.2731728111826698 25.568684043418582
-10.20953063296549 0.3149506011019931 26.42140167293137
-10.714542259424936 0.3585639366297364 27.283411611450024
-11.20327297477127 0.40439942267233897 28.15464142963596
-11.675421754147568 0.45373132856885723 29.034778858219752
-12.131183525855436 0.5083477203058918 29.923203451082497
-12.571863019820702 0.5691646216614247 30.81880542076994
-13.00132580541704 0.6334968248864393 31.719595675721695
-13.425212902794666 0.7001200113174012 32.62285703308542
-13.845910737448664 0.7689656045210956 33.527441808666936
-14.26464991266552 0.8396792892698857 34.432790955641714
-14.682515870547283 0.9116562289993082 35.33844395839208
-15.100186281541129 0.9844320788371793 36.24412331857459
-15.517172725972584 1.0570248739524428 37.15013247485159
-15.932389050233562 1.1264565596699512 38.05720173631161
-16.344982052906783 1.1853780347422211 38.96620958771907
-16.754927206335342 1.226775493526317 39.87737983612858
-17.161303859720054 1.2478456868382537 40.79084251327398
[...]
CELL_DATA 87
SCALARS quad_param_group int 1
LOOKUP_TABLE default
3
3
3
3
0
1
2
3
1
0
0
0
1
0
0
0
1
1
1
3
2
0
1
2
2
0
0
2
2
1
2
3
3
2
0
0
1
1
1
2
0
3
3
2
3
0
0
3
3
3
2
1
3
2
2
2
2
2
2
2
1
1
0
1
3
3
3
2
3
2
3
3
0
0
3
1
1
3
1
1
0
0
0
1
2
1
1
SCALARS single_component_feature float 1
LOOKUP_TABLE default
0.03070062013425323
-0.09592952261781723
-0.13566753065784326
-0.0192091969072265
0.13928762407003697
0.16279060084253077
-0.015071723690114766
0.007316515824020056
0.00862824410741344
0.0017214069877455225
-0.17619330997151766
-0.04285983360000621
-0.0751700841659228
-0.035595135401876046
-0.08923649517336874
-0.013347878938492264
-0.0216549143185171
-0.010210860723221658
-0.11589207632546283
0.024077733019550754
-0.10132363860045314
0.0062926518952960055
0.07835486369332458
0.08975429759163561
0.12987854978349272
-0.04250344563152575
-0.01827912295614298
-0.09166903621473954
-0.010968477569830945
-0.1819947045316968
-0.00513635228068339
0.05164886258514611
0.06988361736792553
0.07511270613676095
0.033331414553941535
-0.09495855530921907
-0.06837432161674677
-0.038868455228560035
-0.12039861540390145
0.027065115954526278
0.02739759276655987
-0.03585778901264136
-4.498811075379083e-06
-0.13502771667337207
-0.0388053111434484
0.1402564959310064
0.11184626235986794
-0.0171433695520036
0.05849512803940595
0.008382991134257403
0.06621234490125924
-0.01614289312444406
-0.08372237309309152
-0.05130288892449128
0.01430812974541748
-0.007270160916235044
-0.03668861371607625
0.029994268550383577
-0.011235097436287596
0.03114802335316964
-0.006696216458968118
0.06162705874001029
-0.09652380646426037
-0.05238628011215629
0.019984038611897202
0.009735213242287662
0.02123952990517962
-0.1051172798878742
-0.04282669229823291
0.14584398055834
0.020479776357677393
0.07577552771137891
0.22352249486468154
0.04506783879682086
0.00032247137115046925
0.11685386236816643
0.02877013562458272
-0.009355575029530272
-0.04083418100846646
-0.03833663703517799
0.13244235004424576
0.04051845278340942
0.2898257900841173
-0.033051201650603206
0.024973286159844392
-0.1309184833585351
-0.07110751501085916
POINT_DATA 5568
SCALARS single_curvature float 1
LOOKUP_TABLE default
0.01346434187557495
0.021870605525765873
0.027997863342844317
0.038005415520177895
0.04725870676155643
0.05504778597638698
0.060996885199463245
0.06534422283156997
0.06797521085097855
0.06885101918546888
0.06802461511240115
0.06508643358788654
0.05983687532133993
0.052473512560465715
0.043550862011465734
0.03397942884985882
0.024745887184376716
0.016841503882222712
0.011519275338801243
0.009367162488931897
0.010081873571111377
0.0129163378390002
0.016446708648700674
0.019571795533024933
0.021818353799899194
0.02288973606785274
0.022662578223290587
0.021325405807411466
0.019401298462923208
0.017497843477292534
0.016379276955497107
0.0164614999043351
0.017208652018389524
0.018295434514441346
0.019003009762721533
0.018279187241133636
0.01591415199697442
0.012166690176948445
0.007903534246785233
0.005002338008943061
0.004666216897123795
0.006987542101421574
0.011839229467895408
0.01738484710520485
0.022353013062085727
0.026365637719979126
0.028552012537660754
0.029468179094993194
0.02963836085957712
0.02945451174038088
0.02939113296373063
0.029539420622929316
0.030054985665076653
0.030802941382966628
0.03178730434532935
0.03274187441194712
0.03350126853133549
0.033831189347177826
0.03349031426447564
0.03244225911695611
0.023945795869968287
0.015449332622980462
0.006952869375992637
-0.0015435938709951885
0.00859720796750756
0.011952698937794087
0.01292119539050611
0.01621003509002381
0.020769005990456346
0.02632306771723696
0.032286694122997193
0.03814420958513638
0.04345291402547042
0.04809416123213981
0.051630614979826024
0.053275646884949256
0.052305777495975
0.048333902669265134
0.04192962858902674
0.034404516960135946
0.027056544110593012
0.02072916668724569
0.015726393277458017
0.012019910303779737
0.009571917093566732
0.008545476483981488
0.009101506916368518
0.011092219229407044
0.013829471287440803
0.0162847062128339
0.01790694885533413
0.018604087753302467
0.018683203048680704
0.018550603743815595
0.018151169392769017
0.016761053320159258
0.014164837455575362
0.011219225809248255
0.008278321356546582
0.006024486063389988
0.004651150724996644
0.003366456375964319
0.002709760308829345
0.003913170450473142
0.007076025589583555
0.011529949196669269
0.017243364216486406
0.021876838250781218
0.024885247302923668
0.027220135820279795
0.02834010782483515
0.02962789820196208
0.03147301959877494
0.03337555890647365
0.03487116085344937
0.03558525306006787
0.035725863740708755
0.03538824015013625
0.03494693053713079
0.034699596025814385
0.034407643114058035
0.03400534123509114
0.03324169896907795
0.03177100407978337
0.02325095644620191
0.014730908812620444
0.00621086117903898
-0.0023091864545424848
0.00967511661855229
0.011646825575310217
0.00917571230143532
0.010456645015646486
0.013701751523508955
0.018684111959475273
0.024580206487659843
0.03068486695083847
0.03651392687511495
0.0419643896057078
0.04654744841858592
0.04941762319461073
0.04969358098931446
0.04677083575814198
0.04117898383351881
0.034331103270482465
0.027620954587524327
0.021898062433467105
0.01736063668053123
0.013776686502529058
0.010808549103531098
0.008597564053280321
0.007881455777264968
0.008959572252713665
0.011460307965385672
0.01434135411835058
0.01658466020692429
0.017881128870066258
0.018504045327834267
0.018851999331376136
0.018725003605161446
0.017227374639124993
0.014070822910863708
0.010321043919214165
0.006570442157650939
0.0037497633430879414
0.002326802218181061
0.001495495417985607
0.0017360804085809595
0.004095840878994619
0.008353352940480258
0.013348466292355428
0.019117005850155418
0.023286078610343017
0.025583321541354266
0.027495908725041387
0.028483948054193454
0.030123278982470962
0.032677334650422274
0.035293233830037476
0.037243640915973174
0.03802564899335562
0.037876132513870175
0.03699056271764918
0.035900630399055694
0.03513536316431535
0.03441872080393017
0.0337298471603397
0.03281603021741162
0.03121653005859941
0.022771374462941918
0.014326218867284427
0.005881063271626935
-0.0025640923240305563
0.010001302698145061
0.016361305514585086
0.021726756388089723
0.029144168031463268
0.036541471868759876
0.043401515375076055
0.04932610973638763
0.05428376949495871
0.058039321498991825
0.06051714414556475
0.06153353124082247
0.060496568289069866
0.05698930510510496
0.05097998838258877
0.04304186873336289
0.034255707050864004
0.025731878333915208
0.018354792881688727
0.012858788788327035
0.009783525453585665
0.009119446594793097
0.010472320301887274
0.013105596965693795
0.016063219465768257
0.01859868058747989
0.020201293977198432
0.02069389197706173
0.02018552584314255
0.01909588003585319
0.01792674235524328
0.017063125369040835
0.016394042972558573
0.015591726430792846
0.014836867056322882
0.013886322016918596
0.01252463503529053
0.010680710567178333
0.008133254546674304
0.005426654773796475
0.004260837296879287
0.005321348644140873
0.008488667317073794
0.013818670405982964
0.01911102256690695
0.023373127024309704
0.026672919323410472
0.02832553132249469
0.029244220649341963
0.029949374005155644
0.03053105364604959
0.03108430793164827
0.031512335480639704
0.03198474085036777
0.03243945896911877
0.03299786807790743
0.03357603843444937
0.03398791062965829
0.03406904222158429
0.03357396761511783
0.03235909634062308
0.023811158997733017
0.015263221654842951
0.006715284311952886
-0.00183265303093718
0.02176459346719773
0.034385103675813204
0.041410530326399804
0.056500921283248136
0.06966984403929725
0.07984003261897088
0.08637965414175178
0.0898292779154708
0.09019867907986047
0.08749340484562242
0.08240305202922737
0.0750415532389774
0.06574761839837688
0.055296611435392065
0.04422367541659998
0.03304243546789275
0.02252051351716065
0.01452554650856777
0.01079254013447782
0.011198274743757366
0.015018121416394194
0.020260753494176865
0.02471629276385688
0.027814714224859455
0.029368822419139767
0.02929691767550452
0.027415754369003488
0.024084504372378964
0.02014930835838476
0.016536068301193082
0.014985156688998838
0.01727550568316175
0.02237113631181614
0.028634543251338556
0.034126605801693397
0.03536268885104441
0.031436899586252474
0.024016443196774404
0.01533230605361886
0.007949530599177496
0.004420413937532278
0.004919718084749628
0.008455604085517045
0.014074252417136354
0.020244548780305672
0.025941933440737166
0.02970989940644315
0.0312624841156924
0.030932287510732574
0.029514882034546698
0.028274959796497613
0.02767586745347315
0.027856976802238795
0.0286036157349428
0.0298136064657438
0.03105766925437636
0.03219566340275755
0.03284455396802074
0.032780200264604466
0.03210747272906731
0.023842247189170686
0.015577021649274062
0.0073117961093774365
-0.0009534294305191884
0.02345650724665658
0.036891856225743015
0.04408893262982796
0.06015538076641219
0.07415101252656238
0.08492802870851918
0.09173543114978054
0.09511464254400435
0.09507183914643694
0.09161255285031544
0.08558071328384664
0.07722421500417383
0.06701052581213932
0.0558598550019825
0.04431478342165614
0.03280396941713197
0.02207914421777389
0.014298044582200067
0.01101807427647835
0.012018171856432405
0.016483769198970842
0.022060065245362023
0.026647047509003704
0.02972869870832477
0.031134863712318116
0.0308086298391929
0.02853913788962762
0.024732878959235132
0.020326540653552674
0.016328467931567
0.014703630029483475
0.017560689088828248
0.02376286272540186
0.03134400492684894
0.03807951456896879
0.039853223729004406
0.035519176489644526
0.027126870687255878
0.017279628046417476
0.008819519374898147
0.00456837108565688
0.004677048202388518
0.007914274357021831
0.013449448733835457
0.019820635624223554
0.025890843304147232
0.030058538596111597
0.03185497236722667
0.031541043857351646
0.029953984231331575
0.028512993917935218
0.027747579252249428
0.027793120251981548
0.028430018578483107
0.029560047804031278
0.030765058090580822
0.03191038464115801
0.03258437570113261
0.03256999559382166
0.03198450934979029
0.0237819153872914
0.015579321424792514
0.007376727462293627
-0.0008258665002052606
0.010248451179623374
0.016777321198932448
0.022237575689537225
0.02987426427947209
0.0374263918148525
0.04436093262210622
0.050284371422871545
0.05518976561110165
0.058853011975961544
0.061201657558531394
0.06206987955443398
0.06087932426816796
0.0572304034264142
0.05110997914058504
0.04309001928756393
0.03423769309504336
0.025653114196328385
0.01822605747376738
0.012727012175989235
0.009716831622346217
0.009163409029960781
0.010642845354085358
0.013366407671535048
0.016347767434562253
0.018861459289098662
0.020419382305887728
0.02085237880420094
0.020276878709618407
0.019120206214470477
0.017891768139357677
0.017005593606741812
0.016391366659858315
0.015706492780582962
0.015091381958644998
0.01426604881095421
0.012952897452418599
0.011071060063807057
0.00843604347463156
0.005608390465478255
0.004305929580123412
0.005251971045989635
0.00834901815511438
0.013645830979664922
0.018964407471578033
0.023288579513407324
0.02664524891288206
0.028336732587718495
0.0292479538460621
0.02990202590518834
0.03041668071378794
0.030918264734910814
0.03132555964068047
0.0318067212585534
0.03229273840309478
0.03289371158926095
0.03350836398973397
0.03395271753293688
0.03405664924270543
0.03357501609616975
0.032373973776620366
0.023828473612392348
0.01528297344816433
0.006737473283936313
-0.0018080268802917049
0.011740711399185106
0.019187488374660708
0.02503620692092184
0.03384602195367429
0.04223338502627542
0.049578376881725915
0.0555041350013896
0.06013021986206369
0.06328937940318023
0.06492614080484722
0.06497715532924635
0.06294242383378273
0.05851830651427296
0.05179332737754459
0.04333138391533185
0.03412437379662949
0.025216796040173677
0.017536870743442002
0.01207560814610008
0.009457186610682511
0.009515512144539535
0.011670125374633985
0.014832511420136587
0.017907630599152437
0.020295482814728927
0.02161384572851431
0.021724596031120924
0.02078114604772127
0.019255022811368004
0.01770058580335082
0.016696823669490397
0.016403442417369418
0.016388642770375297
0.01656996048772195
0.016459750517119086
0.015421198558894109
0.013317157250493246
0.010171153193239031
0.006665555141459263
0.004601905620316536
0.004924729514870056
0.007641875627192091
0.012737119720006474
0.018181119196634985
0.022830205278088066
0.026501915971458442
0.02842087981983551
0.029314429158274667
0.0297128165972507
0.029875331087577395
0.03009844307311824
0.030385459254100834
0.03089765314204104
0.031531278717499424
0.03234018528700546
0.033136041710835756
0.033744926154021644
0.03396556857405311
0.0335546180673628
0.03242837427641485
0.02390205561166168
0.015375736946908511
0.00684941828215534
-0.0016769003825978304
0.01183411398637739
0.01933477850946303
0.025201597219973077
0.03407938539488614
0.04251551656532847
0.04988497267176567
0.05581140492684205
0.060421420211387494
0.06355091613980064
0.06514539196930433
0.06514778429866297
0.06306293896568019
0.05859294650554345
0.05183235635685359
0.0433445521083087
0.034116936170857454
0.02519075026677539
0.01749704665522656
0.012040907102605882
0.009447268607607428
0.009542011238215953
0.011735558664246044
0.014921000201113737
0.01800004475863684
0.020380186802206518
0.021684619571253227
0.021776473802980804
0.020811205078611415
0.019263083528043182
0.01768928997564097
0.01667887205902901
0.01640549836509364
0.016431763735303053
0.01666187176808387
0.016595585147463707
0.015573860843788935
0.013455941338301624
0.010278036084306918
0.006731392805245948
0.004621945922051896
0.004908036140077817
0.007602949024953345
0.012685326425744022
0.01813581670215149
0.022803356628206404
0.026493886405243663
0.028427058982547982
0.029320766061584177
0.029705283370588826
0.029847757965089
0.030054650985916576
0.030334219730577254
0.03084738149958215
0.03148850467752916
0.03230839829340617
0.03311400042549563
0.033731918453751245
0.033959039838180494
0.0335521221119215
0.0324302605885706
0.023905363684665264
0.015380466780759931
0.006855569876854598
-0.0016693270270507349
0.011348361158643478
0.018565335099906405
0.024332217668017745
0.032851110447088765
0.04103022353212793
0.04827140778483833
0.05419502599966074
0.058890102671697774
0.06217571096795029
0.06399219379568437
0.06424973030212022
0.062427966742395605
0.058198958597197946
0.05162562893347835
0.04327402940472926
0.034155130285682726
0.025327330935403302
0.017707562891778314
0.012228089124565874
0.00950605708334307
0.009409690018764202
0.01139735965934928
0.014458091708945735
0.01751469657141081
0.019935072801697904
0.0213129750300758
0.021504284158800988
0.020653565234792916
0.01922083797225115
0.017748655378497
0.01677357303530971
0.01639631963286099
0.016208600724647363
0.016184463984116562
0.015889455285953067
0.014780121468240601
0.012734230690207595
0.009721851423395747
0.006389581275107894
0.0045197480610109034
0.0049989710642530764
0.007810987375080907
0.012959882934229302
0.018375133991600984
0.02294477463822538
0.026536646810621144
0.02839608563279387
0.02929044645773257
0.0297493949228785
0.029998154269584625
0.030290596206989286
0.030608899497345285
0.0311159130901752
0.03171611974774225
0.03247665836869977
0.03322984581683218
0.03379943089744802
0.03399198373186667
0.03356369603449348
0.032418761130394054
0.023886736383940007
0.01535471163748596
0.006822686891031913
-0.0017093378554221342
0.011232224367723429
0.012048957737540231
0.006586795956392587
0.0064282740089161424
0.008783324203553631
0.013360213382159047
0.01875771586207598
0.02451836350186122
0.030325864035337536
0.03613530871902003
0.04145831841254797
0.045395062585179675
0.04688296017183345
0.045034557715924774
0.04028793673750792
0.034145075776546296
0.02809831188844894
0.023017243743404258
0.019034056310182203
0.015794443673598987
0.012732190932343365
0.009537587409067407
0.007444782219752474
0.007407239261047733
0.009289443496175494
0.01242607359841423
0.015341446977617874
0.017227829900433166
0.018351981965215054
0.01914136430657158
0.019311124217073806
0.01792089918029048
0.014612962966794235
0.010536876376224913
0.006526368925100043
0.0036312571128125607
0.0022686151475897506
0.0017047161429874303
0.0023029904016223287
0.005166964137331525
0.010047699460017923
0.015287554028798228
0.021032466974779354
0.024654025763635474
0.026200521247611342
0.027744466247478585
0.028697716807130177
0.03079263708430538
0.03412702118310758
0.03746592782662107
0.039841627004534426
0.040636325611328974
0.040121741775862516
0.03860508676600207
0.036789247749928575
0.03545276390275087
0.03427565495832543
0.03327804688638216
0.03220762748503739
0.03048422257836118
0.022158228339176265
0.01383223409999135
0.005506239860806436
-0.0028197543783784786
0.00886904118617091
0.014272607218389365
0.018860319302709937
0.025012254671848824
0.03152374983256481
0.03796528638633682
0.043902480146156324
0.049158098909751376
0.053431378442002964
0.056629084907926855
0.05847238437210095
0.058297609399854254
0.055590580128810275
0.05021328360843049
0.04274431427674126
0.03434003435348373
0.02616922778582333
0.019093470109259308
0.013669319099772391
0.010275569357278738
0.008998364030000433
0.00962090780482968
0.011687937941636287
0.014461591141175172
0.017108295783352004
0.018969219194823302
0.01980393094227111
0.019674688235475964
0.01896057863753068
0.0181242785685764
0.01739454527311778
0.016440570781165512
0.015005633033652356
0.013495399340380443
0.01186798940735149
0.010236920955807912
0.008589043877510815
0.006501931600628992
0.00446531536749764
0.00405922446968003
0.005770737207795129
0.009339650299187948
0.014833426849872723
0.019957509477420744
0.02385320214335912
0.026836660600735033
0.028286601713444708
0.029272915914315214
0.030291890518374713
0.03126675654522427
0.03211516511528634
0.03265193722718272
0.03305611849115367
0.03330846895011387
0.03359985956580204
0.033952517079871805
0.03416705319766276
0.03411090873503516
0.033536805269952834
0.032242843503002085
0.023688192406396923
0.015133541309791762
0.006578890213186601
-0.0019757608834185605
0.008365690345082864
0.012501170344786863
0.015144007293112875
0.019548357210633638
0.024858816613887877
0.03074952937559448
0.03670813958743503
0.04234980748582325
0.047283319210726434
0.051396041874018535
0.054302106514672814
0.05525652077333099
0.05361677425430752
0.04909649945300953
0.04227336695764228
0.034400758999365184
0.02672640240944152
0.020096623657844502
0.014894802759527138
0.011240350835977504
0.009203930790686583
0.008820401740589736
0.009999247781310271
0.012361292515965424
0.015101093820116209
0.017322486997540555
0.01863216716490725
0.019009669460629347
0.01878700034282905
0.01838685564853153
0.017853421530022125
0.016597321925916415
0.014409107613644067
0.011982596712318173
0.009525816138112054
0.007527190134496868
0.0060798733730413
0.004516520301664128
0.003339647915806456
0.0039245238140596305
0.00651980219818373
0.010633407347876373
0.016282945477337905
0.02112669374828414
0.024491979182425294
0.027069743589351977
0.028297916348216882
0.029443816027462856
0.03094733293320712
0.032481478433660366
0.03372791891395782
0.034384192760267614
0.034645666282438224
0.03455992033383653
0.03442552416542996
0.034426997853020204
0.034342625675279695
0.03408141357184254
0.03339372108512727
0.03199185229369188
0.023449608948600122
0.014907365603508367
0.006365122258416612
-0.0021771210866751434
0.009156969916961778
0.014852402725739655
0.01972994614438629
0.02627252433721242
0.03305606286941815
0.03962484873693962
0.04555735142381312
0.05072197022445238
0.054838410229723744
0.05781869571849841
0.05941186059460141
0.058975213941516065
0.056024095364059126
0.050453176981200686
0.042839830083115975
0.03431758579921711
0.026037338414380592
0.018866412372469707
0.013410866872522475
0.010104535927911192
0.00901169255457421
0.009859564566384992
0.012109120995778945
0.014948751631801958
0.017564076301000087
0.01934512533399005
0.020074410235307726
0.019829513262977615
0.019001440063732552
0.018064050802503527
0.01729230064972763
0.016420471003735147
0.015172786838593215