# vtk DataFile Version 3.0
vtk output
ASCII
DATASET POLYDATA
POINTS 5568 float
0.0 0.0 0.0
0.12998356962206126 -0.10465980676602693 0.9859769756317867
0.2690773802208708 -0.22508317097676855 1.9689068435294255
0.40294456730324923 -0.35294584910141724 2.95162283086526
0.5210983012722585 -0.48307699456557396 3.936054433430602
0.6154265949635926 -0.610969305697223 4.923346553201993
0.6778353092855984 -0.7324137254697958 5.913980898095596
0.7012255029102656 -0.8452193326450372 6.907322628736177
0.6792096164143899 -0.9479398318144932 7.901789219322396
0.606674024573149 -1.039019588283196 8.894987621394128
0.4797420542230431 -1.1164253313539008 9.883874180025963
0.29508674597676965 -1.1773920647362615 10.86478471343722
0.05064681628977952 -1.2193788746521548 11.833539702362545
-0.25415576567657416 -1.2414569897281644 12.78569932283662
-0.6177341136586532 -1.244633480836796 13.71725753077795
-1.0354645183545947 -1.2317573097790757 14.625737312177325
-1.5000423534102068 -1.206722536338744 15.510915653131187
-2.0026407575851257 -1.1734286397446663 16.374794325498094
-2.5342967398754848 -1.1352234702775104 17.22089259492125
-3.087009187543914 -1.0950665257425751 18.053296565357474
-3.6540899223704892 -1.0558027762377542 18.876022399498698
-4.229995365706673 -1.0199084496574762 19.692750333179863
-4.809902573279046 -0.9893195657800664 20.506858403885925
-5.389390684210051 -0.9654389760105511 21.32148914644471
-5.964216750713816 -0.949165619259825 22.139602935063305
-6.530195097196341 -0.9408599357908631 22.963981201962074
-7.083491144340272 -0.9400916858636215 23.79696553195091
-7.62111777453094 -0.9453634222481442 24.640132072620855
-8.141648971102782 -0.9545712397400774 25.493925074168956
-8.64523902663627 -0.9657756969048541 26.357795154740927
-9.13286259233897 -0.976894710478502 27.23077833081509
-9.605757493632085 -0.9854187085820751 28.111855940215822
-10.065072625157581 -0.9883062692521958 29.000124633768113
-10.511924642405264 -0.9816425438407523 29.894707703944
-10.947505488272256 -0.960857562454972 30.794617316773305
-11.373559326874474 -0.922805327237932 31.698514520003464
-11.792631942430214 -0.8670538525762976 32.604753956336005
-12.206367590099072 -0.7947853195994807 33.51227810091256
-12.615948082590311 -0.7078916057399474 34.42040436012013
-13.022341689133334 -0.6102307584779147 35.328868225924936
-13.426802978256493 -0.5073156157466918 36.23761436154117
-13.82973598719324 -0.4032365232053783 37.146906686816685
-14.230980903790337 -0.30099147937377 38.057153064407316
-14.630275991634843 -0.2055058633987915 38.96898963417469
-15.02789898502627 -0.1226582496354609 39.88279061251744
-15.423291154210082 -0.057695830932130154 40.79900287870052
-15.815208770794323 -0.017037716033321826 41.718104341817515
-16.201379068399458 -0.0034519916429294195 42.640431794157706
-16.57883693762963 -0.016962739690277395 43.56635998610534
-16.9440443107035 -0.05718767236346056 44.496416720634976
-17.292706845033397 -0.12251181219791396 45.43138580777612
-17.619297866111605 -0.20975386487969283 46.37251657934559
-17.919010581032516 -0.3130057103290811 47.32094229859093
-18.188698787807365 -0.425854435420681 48.27725471426468
-18.426919031653195 -0.5421855510319096 49.24147366603999
-18.633290530631356 -0.6570799374822394 50.21317839710375
-18.807575690710124 -0.7665578696326592 51.19176884532425
-18.94959776312962 -0.8670205510071485 52.17652108857974
-19.059337663946568 -0.9549299705806822 53.16658628245282
-19.13770255757898 -1.0272080113843995 54.160887458286155
-19.186300543022206 -1.0812773996253113 55.15824132581067
-19.207211460384293 -1.11528054196871 56.15744426808308
-19.202906064829076 -1.12819323135718 57.157351626802814
-19.1767983857783 -1.1199273095638924 58.15697658829161
0.0 0.0 0.0
0.13924389928544245 -0.047854473073213444 0.9891011504991138
0.2827474881087477 -0.1099933083378235 1.9767982119237137
0.41865078477087975 -0.17981399842476975 2.965056966092958
0.5360265687285845 -0.25238511582982026 3.9554893758306933
0.6257054489230134 -0.32340785843157294 4.948924561678465
0.6792764128160746 -0.3888453175557762 5.945342190371845
0.6895040234300804 -0.44613530937190315 6.943647380591166
0.6496012059533702 -0.49374061644819167 7.941716265937059
0.554209368748712 -0.5305296183265367 8.936476019211947
0.4000625270042849 -0.5551869655926469 9.924216251462317
0.18511724356413367 -0.5659798493240755 10.90078270531356
-0.09111764279727919 -0.5613252988977604 11.861861590066122
-0.4274433677429781 -0.5407338839222813 12.80338216890073
-0.8204992688786537 -0.5052456044358011 13.722211663748121
-1.2643149993988874 -0.4575257400326713 14.617058249417497
-1.7508810820807865 -0.40119587208927876 15.48888414554646
-2.271278055346726 -0.33990828608387336 16.340606413669867
-2.8168169840330286 -0.27675474986166027 17.176309057048737
-3.3798690799224813 -0.21433687348436392 18.00036994437627
-3.9540913250925707 -0.1550086444630887 18.81691692673125
-4.534254670980977 -0.1007603357919079 19.629608512201337
-5.115901913442235 -0.053303861003805575 20.441664155823066
-5.695022662627121 -0.014071051158300985 21.255961364767785
-6.267800664224902 0.015939868777195887 22.075122341359247
-6.830478526370491 0.036307141609105864 22.901547654166556
-7.379534068289899 0.047395688821400106 23.737259958735724
-7.91206684094004 0.05051430398312817 24.5836635978424
-8.42647948685665 0.04765473064162151 25.441201615985836
-8.922707944806744 0.040888138777484095 26.30936722850168
-9.401675581478411 0.03250108277481856 27.187159721242857
-9.86476455581246 0.02501376475460726 28.0734398924749
-10.313375585727316 0.021187083839683152 28.96715880821514
-10.7490049496139 0.0242947814647424 29.8672795776318
-11.173265408495757 0.03826229715678542 30.77271205525492
-11.588464206352395 0.06623741164444552 31.68201252882117
-11.997788887520814 0.10927820517166309 32.59338555644428
-12.403093906226601 0.16763191607779526 33.5057027634701
-12.805488975156756 0.24058656136220347 34.418257325253734
-13.205726447837122 0.32529883336023324 35.330745021847704
-13.60448461138223 0.4172054563827296 36.24318411551409
-14.00189355980711 0.5121848990190032 37.15589712253674
-14.397719840901976 0.6071114559247819 38.06930311331446
-14.791606643061849 0.6974177013984437 38.984015072956794
-15.18351595798854 0.7778376983628643 39.90049732208218
-15.572595545980848 0.8431991279449537 40.819379772524414
-15.957490469022096 0.8864348651928833 41.74132693437356
-16.3362975862205 0.9038929579296137 42.66663789991857
-16.706580486654943 0.8948031896368195 43.59551246074917
-17.065092306636558 0.8590543710247598 44.52835290632457
-17.407641568946367 0.7984928546423443 45.46589880153422
-17.729114108440314 0.7169166376124199 46.409297300137226
-18.02523737862841 0.6203095332631805 47.35954888589879
-18.292932872759877 0.5145485024394061 48.317230318725386
-18.5304792719504 0.4052679769041195 49.282439868497015
-18.73726681339878 0.29710484289612843 50.25482849921176
-18.912965420711974 0.19375085822321492 51.23383205040064
-19.057243578876008 0.09860268311040576 52.21878414966715
-19.169849428051272 0.015177342678569627 53.20891552241793
-19.25147539519077 -0.053640590764220564 54.20319983463713
-19.303423218849147 -0.1055241449765959 55.20050095286545
-19.327413151338714 -0.13875306323292402 56.199660760969564
-19.325665992168855 -0.15238332371281382 57.19956633822878
-19.301500928493898 -0.14632590941897883 58.199255968779006
0.0 0.0 0.0
0.15323667294321575 0.04432582533608975 0.9871948861666415
0.30297181535486295 0.07786659568396304 1.975351960649962
0.4413275056879421 0.10398645528093986 2.965390068950391
0.5567007877346154 0.12697736328359865 3.9584461720679296
0.6382217975336285 0.15080256142964565 4.95483298696195
0.6769267627830521 0.17917021358612883 5.953680924325877
0.6652467088858024 0.21502781414234484 6.952969575729117
0.5956952211079366 0.2597683320107115 7.949544147253373
0.46263007318924776 0.313534791357016 8.939191980706637
0.26412579685761417 0.37617576461967894 9.917288172676916
0.000634617351603306 0.4474583934673936 10.879312696869043
-0.32555813238170733 0.5272663017784583 11.821241031612422
-0.7103926101602054 0.6154966768457623 12.739999882251931
-1.1478807650943659 0.7113176253786614 13.634104160350722
-1.6302839686814954 0.8126752666271518 14.504169547393223
-2.148866395586067 0.9166753217721298 15.352848671111726
-2.6948508649782204 1.020288432346807 16.184212179151146
-3.26013188453337 1.1209866267239197 17.00294122015304
-3.8377107322644277 1.2168274084831263 17.813630568304013
-4.421771951870973 1.306281276326065 18.620396022001465
-5.0075357653306085 1.3881413299379939 19.42673322594525
-5.591049412848515 1.4610467141250503 20.23555745166854
-6.168872758692188 1.523515606320203 21.049325120297574
-6.7378030696746976 1.5743961196491374 21.870135375233957
-7.294721933968238 1.6131816455002665 22.69979618639623
-7.836571808963495 1.6401393241371909 23.539839040380556
-8.360540768698538 1.6562418446002916 24.391424172982642
-8.864691650366142 1.6631921121744186 25.25501179580642
-9.348559370527084 1.663165855524411 26.130152943677345
-9.812974718276948 1.6587138889689714 27.01575926974337
-10.259563483648448 1.6523264062843035 27.910475802902845
-10.690125581587603 1.6462700129444134 28.813016439061652
-11.106695995962214 1.6428464076830678 29.722113446423784
-11.511501416914133 1.6452452055392564 30.63651314947316
-11.907814497996773 1.6568955477899308 31.554554657950977
-12.299904170574395 1.679906702404224 32.474193812957594
-12.690053282360106 1.7164682452158906 33.39421931486504
-13.079344849934719 1.7675839819748687 34.31391451267293
-13.46823871174124 1.8320846716036843 35.23293639776959
-13.856538199830272 1.907399922421937 36.151386788669384
-14.243859272953808 1.9897254159706024 37.06964867910501
-14.629685402084238 2.075309986033636 37.98824188583329
-15.013491679568354 2.1591882974266796 38.907838085391354
-15.394905987935191 2.236713358723426 39.828985733840824
-15.77266336115663 2.3029360579198017 40.7525191231062
[...]
CELL_DATA 87
SCALARS quad_param_group int 1
LOOKUP_TABLE default
3
3
3
3
0
1
2
3
1
0
0
0
1
0
0
0
1
1
1
3
2
0
1
2
2
0
0
2
2
1
2
3
3
2
0
0
1
1
1
2
0
3
3
2
3
0
0
3
3
3
2
1
3
2
2
2
2
2
2
2
1
1
0
1
3
3
3
2
3
2
3
3
0
0
3
1
1
3
1
1
0
0
0
1
2
1
1
SCALARS single_component_feature float 1
LOOKUP_TABLE default
-0.04639446127371667
-0.007084440032995548
0.055459464623206625
0.14065707811871075
0.03461259165629026
0.007552454117415272
0.008374808604164528
-0.0678154051801331
0.008114606715123152
0.09686521968557682
-0.017810440724746343
-0.09047700217545518
0.021118440922940573
-0.11625828889253853
-0.0761644859303208
0.012794541979543203
-0.061318736787327105
-0.006162439637804622
0.007781642730442934
-0.0019013021413350917
-0.023598050031628875
-0.07580636739758123
-0.1402236412301463
0.11152306651376953
-0.030257615383501864
-0.09535354427666075
-0.0224467177509243
0.2130642082785287
-0.11013500474123905
0.10418954971134725
0.07283830353719684
-0.08238743260607562
-0.06814687929516931
-0.05399815175116322
-0.14055071895080806
3.4625173129368414e-05
-0.03903690641287619
0.06128012251198977
0.052969339725372044
-0.018353453590107316
0.048600623697797773
0.07556417937934216
0.10544399345221221
0.0610215273609257
-0.0031564407917120396
0.04595707701636721
-0.0065519773216160745
-0.018325105950270225
-0.06616582566823509
0.006106970848250117
0.012602002893393534
0.10521328995952697
0.05478186737680436
0.048066962289467365
0.02984071583600248
0.14627765427511166
0.2235126257602943
0.1144610673164449
-0.10655651865404658
-0.18427870203531788
0.007823815477067814
0.10026839168776938
0.009316300968365387
-0.03979064293269528
-0.035981024553261284
-0.06971573154449459
-0.048858509976441304
0.04311387827733132
0.027711972649074948
0.08614064038050195
-0.10059203014412989
-0.12561333112893747
0.05171404537461665
-0.09295646127436771
-0.02500456408156702
-0.0021868174821047604
-0.07500688829395233
0.006768244325345452
-0.07024369883802269
0.025066060313810756
0.05018458300183358
0.04076989499803615
0.15459364335657805
-0.11708311653195663
0.017302428847606802
-0.015675161547618992
-0.11203048677962339
POINT_DATA 5568
SCALARS single_curvature float 1
LOOKUP_TABLE default
0.010879995579301803
0.016903566734423562
0.020470266507489124
0.02820383158717882
0.03583229958455398
0.0427572012510254
0.04862015986774786
0.05372461360713217
0.05804752495288542
0.06148888114756723
0.06368531289912142
0.06380170649750955
0.06127107975464252
0.05596157703379852
0.04832263337526855
0.03939132843533257
0.030314670243957273
0.022031442465315056
0.015216373049146614
0.010604653782626242
0.008662744183468418
0.009228805236389035
0.0117125216549345
0.01493604787801246
0.01766815121046563
0.019257078959316148
0.019583068808852258
0.018925029808437074
0.017889809735462763
0.01716803390061106
0.017281071005371892
0.018059400655021283
0.018759719079395522
0.018879962491925358
0.017975170229708425
0.015754445710387775
0.012364213056176038
0.008512755393013645
0.0053762945361906485
0.004370995736014316
0.006194168736388027
0.010240497345342329
0.01575203475467838
0.020912272841728554
0.02485726817469475
0.027727990831616412
0.02916130096225764
0.03012181385350195
0.03097941026884441
0.03168219214171381
0.03222444510177095
0.03248366255950517
0.03276737473318161
0.03315886896271345
0.03376036873952768
0.03439937127065541
0.0348403718379945
0.03488603876778356
0.0343466603689057
0.03312063362520593
0.02437233231690057
0.015624031008595204
0.006875729700289841
-0.0018725716080155233
0.011161447845152881
0.018134793399634152
0.023552716646867065
0.031874120865355834
0.03991017119760737
0.04707355579263235
0.05298954176183704
0.05777195109279107
0.06125965516692688
0.06338391536603724
0.06400202395426706
0.06253618121118616
0.05861447138950739
0.052263814398563674
0.04403504612219075
0.0349511898952344
0.02608821824780158
0.018356875403831595
0.012636808775641294
0.009599416336916404
0.009197348250976645
0.010953385060157193
0.013937082608150835
0.017021670526789906
0.01949261934018283
0.020911913994425307
0.0211397116357153
0.020338819592933134
0.01898748543841985
0.017645196624413977
0.01683678554120752
0.016611472209983616
0.01651623641943051
0.016468788523372968
0.016042625936540395
0.014750158594074778
0.012511300109505855
0.009388624938837103
0.006098569465581238
0.004404696301078739
0.005127482783920314
0.008162693605045963
0.013410953397389113
0.01878926561024876
0.02325494619261657
0.026727531139568567
0.028513479235836775
0.029420846588975647
0.029957014539363426
0.030297795848955172
0.03064654274156555
0.03096416922427862
0.03143598264086838
0.03199496979180694
0.03271731865487459
0.03344036199162203
0.03397850806299314
0.034139962898279225
0.03368849901305359
0.03252388465922681
0.023956393551712748
0.015388902444198688
0.0068214113366846275
-0.0017460797708294326
0.012120102126714195
0.020623030256483238
0.028552389262794863
0.03784442610783654
0.046628308982257644
0.0542264110174531
0.060178503401819405
0.06429689806751078
0.06623098906451304
0.06600442152292499
0.0639145291446335
0.05987129296106357
0.05382710004854039
0.04605451526792002
0.03722953742149131
0.028301121410438158
0.020258131145445592
0.014105333567098094
0.010684689876616337
0.010034600029939932
0.011610901636062316
0.014463345121292388
0.017518971353414736
0.02027193057337644
0.022444324798567544
0.023732525580307782
0.023917093545264775
0.022973231142469762
0.02120594286368163
0.019034953962000115
0.016943319226498395
0.015184652993659235
0.013781988116653668
0.013287057217388697
0.013393456080814334
0.013476457494258371
0.01313170066358076
0.011478673737409609
0.008733472658616017
0.00608872906624106
0.005118211835630233
0.0063770623648919085
0.010463251374884654
0.015965078933337068
0.02097904016920528
0.02514149090040741
0.027329855526876994
0.0281022431556294
0.028128184650820544
0.027898430238950243
0.027940996514822982
0.028343047713788275
0.029098636751237486
0.02992652576891628
0.030858840856361387
0.03174320824341111
0.03246506013133537
0.03283676159352574
0.03256129186612343
0.03154792485307202
0.023292828965095883
0.015037733077119746
0.006782637189143608
-0.0014724586988325294
0.01544806039742099
0.025976427882947694
0.035236872256782015
0.04588421781313818
0.05581510113797467
0.06405503625463875
0.06992684495937122
0.07287541101213202
0.07243860794185149
0.06884008630418065
0.06306715041550882
0.055726270408527546
0.04716354303030185
0.038008129499817044
0.029142940407959988
0.02147461828686933
0.01588813067767827
0.012877565051044508
0.012437387050061149
0.014039631222989419
0.016744655949729435
0.019659296504385013
0.022292721840230966
0.024600339447279088
0.026556385431659935
0.027891833497638907
0.02820643288238924
0.027211551447826724
0.025057757332764476
0.022173196561833156
0.01890496468515465
0.015215650376137176
0.011875937689020007
0.010383443017610756
0.01060520438373673
0.01233430758951211
0.014740795818916548
0.015525112327643361
0.014370924919241058
0.01129023441985867
0.00813657763291137
0.006765146275839897
0.008501090401161291
0.013195779786774638
0.01843677844467905
0.023022126504943494
0.02544342010433918
0.02594964451767565
0.025317014925641187
0.024356201161397004
0.024002778779398555
0.024495642356636278
0.025586930729473822
0.02676458329192449
0.027999026194307438
0.02914303030117532
0.03015828098615297
0.030852780794930566
0.03087430723975761
0.030156201521555768
0.02237074702884653
0.01458529253613729
0.006799838043428052
-0.0009856164492811868
0.011692350902624854
0.019686051402537576
0.026883854076798896
0.035847625391082986
0.04437018090995028
0.051816909358437836
0.05776424015070535
0.06212408283298578
0.06460199855280553
0.0651849593695323
0.06401360608486038
0.060828131763594265
0.05547345715928309
0.048140669432240143
0.03946657923848749
0.030427439549441694
0.022030296231860452
0.01524234705080443
0.011020809001987921
0.009614764852915486
0.010618072490795544
0.013233534080661085
0.016330461401311322
0.019198015972639065
0.021455273082006156
0.022769693354509447
0.022953980418193173
0.022046446835788755
0.02040496880798363
0.01848467869496695
0.01679091138128884
0.01553576156548468
0.014576826256264948
0.014257526212570095
0.014220862233181576
0.013857959921472074
0.012872290741538941
0.010696106354031749
0.007679200697885528
0.005328245813272553
0.004913993046360277
0.0067796317887795715
0.011337150626143764
0.01683077123518418
0.021699433183145177
0.02566899132328136
0.027745378167859033
0.02856923515659506
0.028764042225508473
0.028722620329418313
0.02886645302645965
0.02924174611536567
0.029905495206434863
0.030644056257188065
0.03150449373611598
0.032331697135598296
0.03298870968550867
0.0332871847014378
0.03294849457431266
0.03187782045263694
0.023515172121635914
0.015152523790634885
0.006789875459633856
-0.001572772871367173
0.011310881184426943
0.01864188109774972
0.024718417792423873
0.033262940428854186
0.041463792359970116
0.048723282387477314
0.05465333322352509
0.05929678896415558
0.062443290352508625
0.06404093510846319
0.06404125991370782
0.061973810545978274
0.057542406631331824
0.05083199999425578
0.04242553496104448
0.03333222097458767
0.024600937746819998
0.017151867396594297
0.011930049201561115
0.009477609993903895
0.00960139402532409
0.011715077385984204
0.014777965452148418
0.017790122976362045
0.020179031750988945
0.021553152018785503
0.02175872885927245
0.020915103782799326
0.01945621848513003
0.01790039000526727
0.016769150724270578
0.016178692005016076
0.01578326309201548
0.015652022587172586
0.015377170656386578
0.01441697637397463
0.012614086384295876
0.009807463178946485
0.006557071733692472
0.0046241136843441204
0.004943962703431083
0.007575991401813563
0.012635158164326548
0.018067139521443606
0.022691709271204334
0.026355617860013506
0.028253532109743292
0.029134661791112095
0.02955073769217135
0.029756813771198574
0.03003341929738886
0.030371856200900493
0.030912125299148108
0.031534110676939904
0.032303921007514426
0.03306186990611746
0.033639987882302956
0.033847989725356166
0.03343392770747103
0.03229902485829911
0.023801864457289698
0.015304704056280288
0.0068075436552708785
-0.0016896167457385314
0.011320268735664149
0.018671394324698547
0.0247840783640463
0.03334121396923041
0.0415515241259006
0.04881652690162082
0.054747273215806025
0.05938261819947105
0.06250950119355678
0.06407705299131529
0.06404228312080724
0.06194092261882666
0.05748107051729303
0.05075092333925555
0.04233515585144317
0.033242096413307096
0.024519157338891425
0.01708743326857585
0.011894723055491687
0.009474858774598497
0.009627251186151065
0.011759343910736152
0.014825230406289558
0.01783315306179861
0.020217684462149065
0.021589542004369935
0.021794097099926617
0.020948242392238966
0.019483493258579936
0.017915990384671975
0.016766976458095474
0.016156125158254257
0.015743745132132936
0.015607432280643995
0.015340628810009718
0.014398904617686739
0.0126206292376717
0.009832311023331139
0.006586187207237929
0.004640057719456192
0.004937390050915029
0.007546505766506922
0.0125931015143424
0.018027679542175396
0.022660612498797836
0.026334731077119318
0.028238616933506742
0.029118171784290103
0.02952750398645018
0.029726023947876896
0.029998580406474268
0.03033816936013184
0.030882252890287624
0.03150778196798566
0.03228029383993439
0.03304025888428995
0.03362068070361715
0.03383134945262722
0.033419460716400326
0.03228633391785036
0.023793175328083515
0.015300016738316671
0.006806858148549828
-0.001686300441217016
0.010777114813116462
0.01629487518282989
0.018840100170012586
0.026257014310062048
0.03368584313484327
0.04049240841714499
0.04631691884078722
0.051565433280038084
0.056289557619089464
0.06037986338936723
0.06337430013136922
0.06432038780275563
0.06255350878157684
0.05785375403496301
0.05060439412337899
0.04183262280223394
0.03271615110592496
0.024228085357748435
0.016977400585594625
0.011557530204733293
0.008716900279355526
0.008532257812342417
0.010564909429567733
0.013790686443541507
0.0166915323481543
0.018404409770203405
0.01880749763226823
0.01824327698637077
0.017393999580534312
0.01703330965035368
0.017677891711545567
0.019019297896956503
0.02014932228371396
0.020328699536558765
0.01912032300330759
0.016369517122090425
0.012365376355457907
0.008238401477704093
0.005263787163469738
0.004665560594974218
0.0070954565730656245
0.011600486547752767
0.01718699530953012
0.022179001193760574
0.02578391493001392
0.028275061974525086
0.029485740842052806
0.030464265773661424
0.03149498544902359
0.032393711771694214
0.03304049834256555
0.033266600496016575
0.03344603110820639
0.033748070116078596
0.03428834842123291
0.034887859764904675
0.035282534527560916
0.03527119639555305
0.03469199659878225
0.03344418789362968
0.0246018348828185
0.01575948187200732
0.00691712886119614
-0.0019252241496150388
0.011317285843562695
0.018662043189718414
0.02476330107565294
0.033316444908255444
0.04152376013309564
0.048787017342662733
0.0547175447098679
0.05935545950593631
0.062488554990139604
0.06406563407305864
0.06404197263246364
0.06195134295691473
0.057500489829638
0.05077658328281962
0.042363751329015126
0.033270602190214556
0.024545011605601165
0.017107781146060017
0.011905849498535457
0.009475682218306369
0.00961903405691641
0.011745322160463319
0.0148102753850075
0.017819539547879328
0.020205453371026923
0.02157802374271427
0.021782899542634588
0.020937748346774046
0.019474852502648445
0.01791103968921047
0.016767645534399193
0.01616324530157069
0.015756229842657236
0.015621526194419961
0.015352181400466854
0.014404615301660739
0.012618550174108404
0.009824434007413512
0.006576937140922634
0.004634972235659129
0.004939427678515024
0.007555796079990022
0.01260639110502603
0.018040152304923826
0.022670445519548704
0.026341339773721367
0.028243339838887355
0.02912339412985966
0.02953486003816982
0.029735770662962544
0.030009608225565497
0.030348832862417657
0.030891709849287283
0.03151611763309046
0.03228777432173257
0.03304710081406913
0.03362679301549933
0.033836617343817335
0.03342404014166014
0.03229035016561703
0.023795924776850726
0.015301499388084422
0.006807073999318118
-0.0016873513894481856
0.013436800982106433
0.022938999284846898
0.03183929982739837
0.041791317505722715
0.05112148620570792
0.05903145212983584
0.06496684806893953
0.06855051533213918
0.06935072979047968
0.06747965538356437
0.06356493663109287
0.05786049871883342
0.05052179464407317
0.04198687337279009
0.03301598797642541
0.024519468602912015
0.017482220042931883
0.01281767362369834
0.010948394560701041
0.011596352526303219
0.013963813003411357
0.01697342148687484
0.0198540416637144
0.022383206598724448
0.024425893958087527
0.02570830622269747
0.025932510475081293
0.024946561043866316
0.02296720504565601
0.02038500826062243
0.017618925663210782
0.014886409677422718
0.012570102706417325
0.011644846681005355
0.011911881400501576
0.012840166371926217
0.013803697921833733
0.013279528294340821
0.011220865753474083
0.008165595190918225
0.006112794271579614
0.00612402564330402
0.009144055666657776
0.014465015019957325
0.019662981283622018
0.02410152683299558
0.026446967056185065
0.027100061844282115
0.026798088229451716
0.02620376176511049
0.02604954141719501
0.026499771325723856
0.02742730565371548
0.028429241202739555
0.02950768978141044
0.03051386959200322
0.03137344831824904
0.03189812936261806
0.031760052154221494
0.03087893782013392
0.022846791262067366
0.01481464470400081
0.006782498145934256
-0.0012496484121322995
0.011069907315404382
0.01778216148610171
0.02270324533860682
0.030862757458778735
0.03878242660194952
0.04587787905881348
0.05178158108147353
0.05665927660167844
0.06038699733768056
0.06288550708537702
0.06394703009677456
0.06291874032477725
0.0593740056407783
0.05329685059323871
0.045212806438883854
0.036152395991884974
0.02721188664913257
0.019302947261279717
0.01324594665912535
0.009776175734728002
0.00897066355785056
0.010431741892576202
0.0133227799752346
0.01645553494349855
0.018991702012127867
0.020450140685568257
0.02069913056293944
0.019933210096359916
0.018664382935534497
0.017485073377065202
0.01692058658467892
0.016965629150710815
0.017088777398706432
0.017095140902348382
0.0165486486208139
0.015008277536242908
0.012452434863441698
0.009111025611720858
0.005833172069323687
0.004320209100562011
0.005340801618527401
0.008664789140927573
0.014012333708586578
0.019342158046548142
0.023679309965759704
0.027000247153365447
0.028697388140120562
0.029621792396873098
0.03024593484137139
0.0306855769686649
0.031087220162167577
0.03138925132656996
0.03181028656319603
0.03232326130295896
0.033011628849330336
0.03371030530016833
0.03422043660244268
0.034348926632539085
0.033871627972659246
0.032687562834673396
0.024069596508203145
0.015451630181732894
0.006833663855262642
-0.0017843024712076092
0.010700934677472244
0.01569764344513296
0.0171743743132718
0.024253476025537016
0.03148857463883029
0.038177185808595054
0.04395268216041614
0.049329688187625315
0.05443468441051992
0.05915291245714369
0.06293512964201478
0.06472476232548978
0.06376338241002086
0.059737475545439796
0.052951430055269644
0.044406752775688015
0.035303518280565
0.026655757876319346
0.01904457770911788
0.012868663621467522
0.00904414267588331
0.008010133113642012
0.009459895178271064
0.012580245631291934
0.015679734551804464
0.017549214475396688
0.018051050549032846
0.01759621790286618
0.01695063080611783
0.016984630097038364
0.018211605680124317
0.020162505216582277
0.02174620632632189
0.021965697565134334
0.020403853937416394
0.0170722214091615
0.01243354616195559
0.008133332892751631
0.005365683174569005
0.005224642960476002
0.008294969448857967
0.01318875934184856
0.0188263322458943
0.023600108366920503
0.02680421037335225
0.028856842296762795
0.029810010909184045
0.030799032266855562
0.03201030047724987
0.03311417690643623
0.033870246555695926
0.034060508944997084
0.034128885183994616
0.03433824543610941
0.034817691765606756
0.03538045798513213
0.03573139857732994
0.035664721492550545
0.035049877797879554
0.03378826609015625
0.02484924764194864
0.015910229193741035
0.006971210745533429
-0.0019678077026741778
0.011481918269772627
0.019145131318913138
0.02580310404399244
0.034556741974149666
0.04291622777537516
0.05026812592288709
0.05620831374692533
0.060713875055958995
0.06353096496081122
0.06462591428618142
0.06404281548121504
0.06141510369561779
0.05651734652246744
0.04948784358454039
0.04093724709089353
0.031859102225787396
0.02327937835907601
0.016138113466746703
0.011408367454344091
0.009487801304840844
0.010069282658279258
0.012461891736656405
0.015557234906450551
0.018497996098653442
0.020817754076866552
0.022158189336206932
0.022349942960870398
0.021471853831956128
0.019918736055208677
0.01817499005303637
0.016755794680790807
0.015830505899676148
0.015154127234303405
0.014934118343129774
0.014785673090631392
0.014127580135822947
0.012732463390846771
0.010234787719629199
0.007079722877509658
0.004933088972077773
0.004883161369037048
0.007134081134287306
0.011962184861462588
0.017431318491755526
0.02218623799085369
0.026011201000770062
0.028003249155664503
0.028857057480499243
0.02916200611108743
0.02924367385712804
0.0294535785203207
0.02981077148456934
0.030413490714683602
0.031093948386249674
0.03190876433889834
0.03270069501863413
0.033317582716523984
0.0335702548109391
0.033192996841138626
0.03208881623853327
0.023658361350303206
0.015227906462073143
0.00679745157384308
-0.0016330033143869827
0.010660572942663165
0.015088527045525617
0.015380671482972315
0.02206191393289378
0.02909793056262731
0.03565770466146317
0.04136482771281903
0.04685851815839851
0.052341481406587495
0.057696959174288194
0.06229785871493777
0.06499596884243965
0.06494058265101293
0.061712378833082615
0.05551524828046494
0.04730167539028811
0.03828188602622484
0.029515487274967406
0.021587333659023027
0.01472670126610658
0.009757062375933536
0.007703593926399493
0.00839961773989594
0.01122284780005388
0.01456791671805596
0.016647869339940585
0.01728108345098401
0.016959715089388688
0.016549887107736118
0.01704380372709638
0.018956171191992884
0.021618528874933728
0.023718919260320395