# vtk DataFile Version 3.0
vtk output
ASCII
DATASET POLYDATA
POINTS 5568 float
0.0 0.0 0.0
0.13993825858735182 -0.03929848030542693 0.9893800651060356
0.28322692315951514 -0.0922059241724632 1.9776457991009881
0.4184843517813658 -0.15250394146828128 2.9666198013441196
0.5347013360707324 -0.21535234232813694 3.9578532204094996
0.6225423599153108 -0.2765308322117723 4.952107285981018
0.6735813690047291 -0.33209384932776875 5.949257109568295
0.6805896147731105 -0.37945885414515307 6.948110172240628
0.6367414934116234 -0.41711204147710323 7.946438564973607
0.5366639867791103 -0.44403742230075827 8.941053825531036
0.37722804916236363 -0.4590905775898263 9.928147328858918
0.1566467704896395 -0.4607731650757696 10.903514474296193
-0.1252847668560509 -0.44771682669890617 11.86286015770655
-0.4670740286297058 -0.4195267846631534 12.80221388344901
-0.8650933978373926 -0.3772456608614204 13.718616026782152
-1.313187376351651 -0.323486053637426 14.610984611533087
-1.8032637267548517 -0.2617931610424046 15.48047823300408
-2.326413923604229 -0.19574791514566825 16.3301557583223
-2.8740095089784172 -0.12837341905020616 17.164181988218328
-3.4384895451813997 -0.06218711875689986 17.986970941949334
-4.013570677528088 0.0005613250123144287 18.80265735474741
-4.594077356186878 0.05797684704109218 19.61488605028993
-5.175613822666526 0.10839161013761112 20.426842754687573
-5.7542380133010465 0.15037195736331355 21.241355919995144
-6.326207641414663 0.18290396585080626 22.060985356349978
-6.887842810700241 0.20555573191670762 22.888060222438686
-7.435679174630688 0.21867834710817635 23.724542807628602
-7.966834820935181 0.22353773440457858 24.571803137016186
-8.479688205625576 0.22208731265939585 25.430278123307787
-8.974145158531336 0.21640188674644367 26.29946164688341
-9.451122778787973 0.20879408800543642 27.17834415960774
-9.912025798674092 0.20178046865097454 28.065766953659935
-10.358293246552197 0.19806866325438022 28.96065889544121
-10.791480838471248 0.20081936551942414 29.86195848150814
-11.213272334593476 0.21384914701900914 30.76855770861626
-11.626093334217124 0.2402829924969374 31.678986219858622
-12.033276242624071 0.2812410530253635 32.591414034197385
-12.436720683720006 0.3371814008012939 33.50470657245635
-12.837528457107728 0.4075794215161377 34.4181600455306
-13.236415276396308 0.4897681268001073 35.33146958896129
-13.633956233457859 0.5793935914467778 36.24466642620146
-14.030220092865953 0.6723914833075819 37.15808108879258
-14.424943252200459 0.7656368059917928 38.0721373984817
-14.817743503367687 0.8546198925298574 38.987446074827076
-15.208516492617408 0.9342001882462911 39.90448666684387
-15.596341601110543 0.9992405966871876 40.823922053639556
-15.97982656122671 1.0425988566889788 41.746450831865104
-16.35713001890737 1.0604961216876896 42.6723675606954
-16.7259184818397 1.0520392826711678 43.60184244012026
-17.083011475801083 1.0170291518746097 44.53525493436131
-17.42425766228856 0.9573491698046745 45.47333240448192
-17.744641229801434 0.8768850435900561 46.41719674540187
-18.040000430976768 0.781599605534169 47.36781950316415
-18.30727318851171 0.677247636118939 48.32577354149732
-18.54468203376647 0.5693632500313008 49.291173976256545
-18.75156251439511 0.46253285971717584 50.26369016349468
-18.927557800712787 0.3604017646809896 51.24276876024811
-19.072300445106045 0.26633543535336557 52.2277566244276
-19.185496571057325 0.18385390751597086 53.21789976288549
-19.267805513640766 0.11581182476316587 54.2121811681956
-19.32048043742725 0.06449067467561498 55.20947324775794
-19.345182801689287 0.03158077692842498 56.20862625497462
-19.34408993141709 0.01800474425234444 57.20853349915847
-19.320504425854864 0.0238425150081516 58.20823827776062
0.0 0.0 0.0
0.05968144253702476 -0.18844945397842305 0.9802677841854919
0.12060814584818413 -0.36151419313548033 1.9632919613470377
0.1739202428523628 -0.5167278147380472 2.9497333189461763
0.20827114643237776 -0.6521578605327151 3.9399245722499465
0.2163168596918958 -0.7671544000904569 4.933257881058169
0.1931689677755244 -0.8627227498552483 5.92841157050672
0.13466727147372556 -0.9393096146315083 6.923756738613521
0.03706168079520886 -0.9974941182863212 7.917279618170272
-0.10299519739537538 -1.0381196637654626 8.906589294624531
-0.288087229341909 -1.0619695867415804 9.889021033161075
-0.5201510467210857 -1.0699454443236986 10.861688895465178
-0.8006546897461458 -1.063145880954424 11.821517771977891
-1.1306500588324635 -1.0427716220086267 12.765280425378625
-1.5100356167955997 -1.0106963211621627 13.68996295115956
-1.935698003080669 -0.9693617701405981 14.593900442247271
-2.4013564273629324 -0.9214355617137233 15.47756627865874
-2.8990011924225856 -0.869383620723853 16.343383974971253
-3.420199212922526 -0.8151354632930867 17.195093879130123
-3.957252061166211 -0.760040385302832 18.036841329720023
-4.503750135219345 -0.7052588808847516 18.87250803471066
-5.054469230952232 -0.652110723021212 19.705504883990933
-5.604978585972334 -0.6019498893590002 20.538825555042397
-6.1512267467534505 -0.5559397954461323 21.37518434055336
-6.689512638068305 -0.5149871512331969 22.216951042284514
-7.2163607047160445 -0.4795782982203855 23.066172643398062
-7.728548115835 -0.44962256491499264 23.924523801102996
-8.223618706116822 -0.42444511035506277 24.793011686119183
-8.700783545219503 -0.403063987459631 25.671565363425152
-9.16094588181948 -0.38451575208643324 26.559206387116255
-9.605365933804835 -0.36707056211717803 27.454855025110124
-10.035165897544926 -0.3484806812575882 28.35758776933659
-10.45125430755826 -0.3261200674639859 29.266636963826826
-10.854751521728371 -0.2970346440555782 30.181155436194725
-11.247217167228792 -0.258312511290697 31.100106639216996
-11.632162617154437 -0.2096790193092588 32.02176372514388
-12.0146199716859 -0.15319985421582327 32.94400906987333
-12.396375409520534 -0.08996656067413966 33.86610686092998
-12.778321147520238 -0.02131263441369169 34.7877380733099
-13.16090582467628 0.05010478854754541 35.70889414939201
-13.544417463268632 0.12163984155102447 36.62965555130675
-13.928471931506396 0.19223962065472677 37.55026287075251
-14.312568383461404 0.26137186137968027 38.470964043168365
-14.695994936562238 0.32667838914073855 39.39222358087151
-15.077502849494895 0.38503719426683913 40.31474510486649
-15.454871050281016 0.43253324310111285 41.239589614165524
-15.825541556290002 0.4635409043923344 42.16783629523489
-16.187490314194743 0.4754807462222743 43.09995781994521
-16.538950029089513 0.4678461359529873 44.03612969600864
-16.877666157018233 0.4403160280310052 44.97661546296037
-17.201037486508152 0.39438520320060433 45.92177224497821
-17.505897402465653 0.3324447353250184 46.87215312130187
-17.789357597229714 0.2581135695674188 47.82825206794988
-18.04862791398019 0.17513456799539728 48.79048560932652
-18.281301196429485 0.08796383789302453 49.759126103755534
-18.485607248013036 0.0012963516296504718 50.7341890679333
-18.660451684154758 -0.08072843359092119 51.71536252750087
-18.80495950036022 -0.15427125106464035 52.702129442761795
-18.918935816738827 -0.21520007946721686 53.69374281357436
-19.003521425597683 -0.2602940757290805 54.68913811508784
-19.060457214591764 -0.287377017769714 55.68714855099623
-19.09181061154811 -0.29520931668794304 56.686626224380156
-19.099937360396275 -0.2834968490152986 57.68652460624412
-19.088413133181007 -0.2530821723885406 58.6859955361029
0.0 0.0 0.0
0.04984105292245 -0.206152519987583 0.9772497162682374
0.10069433693009272 -0.3935433061520828 1.9582179302111198
0.14402574522150147 -0.5601019525352303 2.9432969150496433
0.1684531826754308 -0.704214976198211 3.9325566062885757
0.16685723443994294 -0.8256692342498622 4.925152352879479
0.1347569134998113 -0.9260802330192388 5.919580430078468
0.06836024467453694 -1.0062479201940606 6.914147986507867
-0.03571470269483852 -1.0669892137820167 7.906860885881762
-0.18057635360686475 -1.1093543857592647 8.895405419172185
-0.36875385921236864 -1.1343466345588535 9.87722241529928
-0.6022187228789148 -1.1431497351247135 10.849547804689882
-0.8826004403647388 -1.1371545523553703 11.80941766580818
-1.2112530614397792 -1.1177550087810804 12.753669280776148
-1.5884798681376044 -1.0869301200238426 13.679277060854549
-2.0115163377431844 -1.047106216671616 14.584514158031547
-2.4742922712652433 -1.0008480828440431 15.469781699742851
-2.9689065218978943 -0.9504885552456119 16.33743408465928
-3.4869545193355806 -0.8978257165954675 17.191162904470414
-4.020727409564916 -0.8440678847678272 18.035080315816696
-4.563805336308501 -0.7902416628654237 18.873035626868308
-5.11096065853522 -0.7375942014487932 19.708409374459983
-5.657759547453224 -0.6874408561385947 20.544169876656774
-6.200137176034909 -0.6409144222634822 21.383015392210723
-6.73439680420206 -0.5989156839054625 22.227291860961945
-7.25708594411318 -0.5619483270947389 23.079013339820733
-7.76500782145624 -0.5299622897102194 23.939822412686915
-8.255755353372015 -0.5023559436068699 24.810686781904877
-8.728638063571264 -0.47825957844998973 25.691482619531758
-9.184677264157518 -0.4568330297940277 26.581184339515115
-9.625177527854051 -0.4364123987502089 27.478704542915047
-10.051233064957222 -0.41478305934943577 28.38314296037685
-10.463694634933725 -0.38933092554020404 29.29376233320892
-10.863634468609309 -0.3571290918717996 30.209737863093828
-11.252601614004693 -0.3153784979030976 31.130042947131848
-11.634227712341241 -0.2641232408427252 32.05293753466181
-12.013688143265744 -0.20569316618257993 32.976298627484006
-12.3927264511885 -0.14127454697717234 33.8994346968837
-12.772189383584786 -0.07222252930768813 34.822061220344295
-13.152479127314248 -0.0011076759613815046 35.7441904891823
-13.533868117637649 0.0696032097493876 36.665896737778944
-13.915938128246848 0.13904787180521183 37.58741719110868
-14.298161024870886 0.20687366241375105 38.508994816392985
-14.679824048294533 0.2708974184452453 39.43107631778792
-15.059590798519642 0.3282317177586471 40.35438016460418
[...]
CELL_DATA 87
SCALARS quad_param_group int 1
LOOKUP_TABLE default
3
3
3
3
0
1
2
3
1
0
0
0
1
0
0
0
1
1
1
3
2
0
1
2
2
0
0
2
2
1
2
3
3
2
0
0
1
1
1
2
0
3
3
2
3
0
0
3
3
3
2
1
3
2
2
2
2
2
2
2
1
1
0
1
3
3
3
2
3
2
3
3
0
0
3
1
1
3
1
1
0
0
0
1
2
1
1
SCALARS single_component_feature float 1
LOOKUP_TABLE default
0.0011030185096563665
0.09239565530919036
0.10343694408125932
0.10004113721655643
0.04017081274485286
0.08040942206234561
-0.046229581214326534
0.11649430524105553
0.026641157810650767
-0.06884110984137373
-0.05941711467735991
-0.04730891285674824
0.04744085487487785
0.06483756468763413
-0.05171708752962571
0.1547684905711308
0.09983120807303594
-0.052750807267761844
0.0066743401614626635
0.007740649093534408
0.08349921881760619
-0.05307570005128876
0.011816259102432704
-0.12553936072045407
0.0752753366554742
0.002442433209299877
0.02135838397976203
0.021524524781135895
0.032878797015404804
-0.07718825739285351
-0.01933177616909132
0.027116767532555222
-0.04306136945752306
-0.11023054546100657
-0.09338745357511107
-0.0002735691987542921
-0.01536525634478194
-0.06379153949684191
-0.07199416743672382
-0.1345170874320581
-0.0820654586756028
0.035599137580469814
0.06114954118511784
0.10339518368232141
0.01642306193269038
-0.00602093306913859
0.06612917691203377
-0.08077459533690778
-0.054823047374275236
-0.06033708365211178
-0.03655856095382002
-0.048110888143190506
-0.04148743361272646
-0.135461664554858
-0.09084266695015575
0.1153148132884379
-0.10754920896356343
-0.020508741337802013
0.03221423567273929
-0.02462148094217892
0.004873353185143252
0.07805339391069309
-0.03405594949400108
0.016548780793590165
-0.061292051839350964
-0.057508154317773105
0.03879097003427597
0.04346541853178916
0.008797489459818598
0.0047892687147839934
0.06806990104401317
0.053003353335558806
-0.006561125368247711
-0.1376731475105542
-0.1044251033709922
-0.015026674234566773
-0.04492646976859764
0.0612695736833332
0.047918568202784825
0.018493087539220833
0.09430583283724464
-0.004650103396069836
0.04079369754564582
-0.017591482096663474
0.017794694960415067
0.034448988377094245
0.12735391714670333
POINT_DATA 5568
SCALARS single_curvature float 1
LOOKUP_TABLE default
0.01108411192790304
0.01822809211636762
0.024044155309599916
0.032505210494835235
0.040599007523080675
0.04777446842906323
0.05366857228923313
0.05836335644670528
0.06167713299543962
0.06355045607958043
0.06388548292234354
0.06215425636024199
0.05801566986762829
0.0515178372278583
0.04322082287690551
0.03413985147437061
0.02533914780730943
0.01773347282197808
0.012241565484601565
0.00948343600258337
0.009339208365927137
0.011279745985556871
0.014315711828645654
0.01737168717208862
0.019804216276410904
0.021199284056012714
0.021412689009011037
0.020588670808327512
0.019186101367531204
0.01774453678707583
0.016783472852268905
0.016374884731920787
0.01611201085005733
0.01599492118821737
0.015610236308328961
0.014453049863121915
0.012416151456189142
0.009453335257978953
0.00620118631581702
0.00442471662672224
0.00497846958372596
0.007832006150884141
0.012991183147364053
0.018383780427181154
0.02291860200733869
0.026479011833408794
0.028317713820536727
0.029214997926462885
0.02969840706340907
0.029980480478445513
0.03030270265097171
0.03064038203371191
0.03115554424504592
0.03175533137462085
0.03250905383236532
0.033253320362818375
0.03381156552165792
0.03399293986747612
0.033555073219476955
0.03239852423859101
0.023866860562580205
0.015335196886569397
0.006803533210558588
-0.0017281304654522198
0.01575850985290361
0.024118189427787422
0.02939169619580907
0.03449012969052086
0.03838252293749208
0.041544391079315596
0.04447536013784172
0.04706945361013756
0.04930962887767689
0.05121389044320506
0.05262796436319668
0.05288161422687797
0.05115699220545578
0.04694168234216897
0.040288169566116465
0.032101006441215205
0.02358948444772283
0.01569268523603326
0.009561653652418713
0.006545900140141503
0.006454719177644362
0.008824641254504858
0.012598816665610767
0.016042708259447216
0.018545712876605565
0.019732698625012316
0.019628988274184793
0.018586313311097873
0.01725474378739369
0.016205349068670546
0.015607479613339605
0.014719255010938433
0.012892566638169563
0.010769391049509447
0.008304737616420423
0.005840843251654172
0.0040315518325803445
0.002606628585049456
0.0016134211720428542
0.0018754024518939305
0.0034511517122890194
0.0061416233649804995
0.010303134584944534
0.014651905445905024
0.018464647696501996
0.021503756125079234
0.023075537428427193
0.024000476876504508
0.024701559331438194
0.025299552352776578
0.026115479858792843
0.027130506494400918
0.028395189499583938
0.029788887474870726
0.03121483904675035
0.032340523500259136
0.03300391543297783
0.03301817311214649
0.032261893960855145
0.03064729713478155
0.022378767435841235
0.01411023773690092
0.005841708037960604
-0.002426821660979711
0.017827256940520415
0.026488268773952276
0.03097077335544907
0.035289026531510566
0.03848062543497705
0.04104065779180621
0.043546612983294236
0.045839419408824175
0.04791205376504306
0.04979252567670238
0.051316333702292063
0.05179318791247401
0.05034577195525747
0.04639334495994183
0.039931092971729594
0.03185325703605003
0.023390976746388164
0.015483276647630089
0.009283308435255867
0.0062663346086776865
0.006194861869037849
0.008615153572031227
0.012487488987661043
0.01595653134848135
0.018448911912927798
0.019595698552349067
0.019441602955313633
0.018363092591763105
0.017032607917476152
0.01602320496676742
0.015461481581170576
0.014517773834318952
0.012541816061734098
0.01024411699798124
0.007620486886820032
0.005118585004076738
0.003552662376752517
0.002413199571161901
0.0016498174658322463
0.0020494674745215645
0.0035030647125608694
0.006022122007348686
0.010039608021499911
0.014273959135458182
0.01801827971860748
0.021004761085437453
0.02253986611755175
0.02344643592921464
0.024141730868024253
0.024746370356659185
0.025593773418312756
0.026670560341331622
0.02801349131991117
0.029493809083478838
0.03099496323145554
0.03216620491506978
0.032844590653361934
0.03284254760453927
0.032052011995956066
0.03038664789464258
0.022163441862021006
0.01394023582939943
0.005717029796777854
-0.002506176235843722
0.017187562166671742
0.025753349506890316
0.030476575942993505
0.03503435732279614
0.03844281055438675
0.04118935300558304
0.04382720977957149
0.04621382029806381
0.04833912140202199
0.05022784111035493
0.051718571688961434
0.052127238012445676
0.05059488879632175
0.04656187641965054
0.04004095260799663
0.031929450230532286
0.023451642364741152
0.015546422326938104
0.009367157047069582
0.006349622276126431
0.006271778668070549
0.008676929232711763
0.012519199235958782
0.015981281253539363
0.018477435700746173
0.019636933579164434
0.019498590773472293
0.018431298006213778
0.017100643381004376
0.016079109728483604
0.015506444784184474
0.014579741358479954
0.012648832698273181
0.010403302581535599
0.007826458416947093
0.005333005489437003
0.0036874149471286884
0.002460942346705799
0.0016284108960073942
0.0019886681067559963
0.003485282737400208
0.006057406213875245
0.010119138747910554
0.014388394183132803
0.018153272760976162
0.0211556655613451
0.02270214294312667
0.023614873647703073
0.024312695143076702
0.024916015467598435
0.02575438341441523
0.026812640148018495
0.028131798430396537
0.029585707403089766
0.03106389146601777
0.03222115221438012
0.03289488828025034
0.032897776082113535
0.032117680229803075
0.0304678155566503
0.022230386222520795
0.013992956888391288
0.005755527554261782
-0.002481901779867724
0.007979366195439722
0.015319665651033943
0.023756150643399
0.03214837486757276
0.03896115930196336
0.04468691981430125
0.04944546195244036
0.053321281045251676
0.05622981247712918
0.05815210405224094
0.0589776621628415
0.05812321729342202
0.055045248171493324
0.049549863734520645
0.04197081194708555
0.03327084523224714
0.024570828946304985
0.016809008303319585
0.01103617641496914
0.008125460045903731
0.007980598397975255
0.010095595547283695
0.013422818826730474
0.01667112955806896
0.019164723918306197
0.020497565128933342
0.02059788471848097
0.019698184369660213
0.01833995146957097
0.01707971716126213
0.016288270906326733
0.015669959825885846
0.014663277777499253
0.01356172531992836
0.012117623786152644
0.01019009886387264
0.008001274620396891
0.005427808954653809
0.0031607032253690276
0.0024481664254080646
0.00374482789476296
0.006894916756476121
0.011732700277351033
0.016659104394652888
0.020853861177215653
0.024174463054889413
0.02590741133949585
0.02685472390136319
0.027487962397829503
0.027961255779709194
0.02854500023175194
0.029208201997750705
0.030065651970985072
0.031020971160480738
0.0320720480131475
0.032979441883688995
0.0335777560499081
0.033680260451940086
0.033098669449659404
0.031738631538658066
0.023295217869743604
0.014851804200829141
0.006408390531914679
-0.0020350231369997834
0.013563455489163713
0.02162534130544241
0.027782237187681476
0.03372560576030423
0.038359365301780364
0.04215671068652302
0.04553544698588869
0.048444446862621185
0.050854951703006704
0.052775825891421047
0.0540641042403383
0.0540707483359546
0.052041739464672235
0.04753814736760798
0.0406753516364429
0.03236992544215387
0.023808900214585395
0.01593234430032777
0.009880175810309937
0.006875159970719209
0.006765895843421612
0.00907829554485925
0.012745919567182946
0.016154870146323108
0.01866414049648617
0.01989106095201078
0.01983927275533972
0.01883337025331763
0.017498862765099484
0.016404251687646303
0.015765269667518275
0.014937908879473124
0.013282531369246878
0.011364934149404487
0.009095197733477528
0.006704316232832805
0.004705778086060968
0.0029579664328264563
0.0016981561048248263
0.0017818951560098911
0.0034084390604956177
0.00628581319657692
0.010604985159991285
0.015081035771094438
0.018973132126244723
0.02207222951061171
0.023682830864741516
0.024622280126094336
0.025321677481316692
0.02590469245627836
0.026679531113390987
0.0276225367344813
0.028799150167834593
0.030096360279258612
0.03143899734482802
0.03251491952702658
0.033162461223277054
0.033195310216145746
0.03247726169946739
0.0309190075275581
0.022604441197700813
0.014289874867843527
0.005975308537986241
-0.0023392577918710453
0.018389581748980196
0.025998873144988183
0.02878664967695181
0.03550446157288661
0.043887900537233196
0.052186337702058126
0.059192140280280144
0.06475908122165898
0.06851339208875201
0.0703068340669139
0.07001964106532065
0.06718050936288009
0.06169674716678437
0.05392490525851218
0.0447238511432396
0.035180974040938645
0.026294129106744352
0.01891258412268959
0.013768409253897934
0.011244356050750687
0.01114244559118465
0.012915628830724417
0.015658203957739706
0.01846854618212695
0.02078145248110804
0.022201157241527117
0.022503533902213615
0.021731918653809343
0.02024626494458219
0.01855788529370836
0.017362552769697916
0.017216449995429796
0.01801198651289379
0.019348761466092823
0.020592643130623586
0.020795732161835327
0.019331039669117037
0.016052671116348102
0.011578626409748298
0.008129725910836818
0.007277856941074943
0.009409462883815058
0.014723809110231606
0.020700523632094864
0.025688346894073035
0.029558820563008095
0.0315050899783831
0.03227347914099294
0.032475915119860116
0.03242771808398794
0.0323441421735136
0.032225099711767576
0.03228935778557281
0.03243410692576782
0.032815696948559674
0.03336811717767925
0.033890928513786216
0.034182671376121486
0.033930874516431724
0.033029499358890956
0.024434586849691287
0.01583967434049162
0.007244761831291951
-0.0013501506779077174
0.020305281846009424
0.029351468608952158
0.03293091358278768
0.03633594289985352
0.038687208420647747
0.0405210700467959
0.04251109828260181
0.044433874514137564
0.046294067610223005
0.048134441484973596
0.049779393433181586
0.05051443310880119
0.04939094108749844
0.045746250744472014
0.03950838803111893
0.031560381422701116
0.023161089446468885
0.015251987454578387
0.008978616856799723
0.005972024214327854
0.005927571285287064
0.008402248319142736
0.012387032970623863
0.01587589113931123
0.018349476751725127
0.01944452221560883
0.019227780067273784
0.018104555240254
0.0167733891316727
0.0158092381218736
0.015288144587382174
0.014279551408130014
0.012137363911767658
0.009651486235209719
0.00686565268107507
0.004362864462574036
0.003124091748762717
0.0023171322726288374
0.0018079256018498342
0.0023300393742733696
0.0035923657861655694
0.005900182629182232
0.009746806940706235
0.013849273504921995
0.0175186389836388
0.02044626105818227
0.021936884197177414
0.022815540888275917
0.023494991492652443
0.024098777343022414
0.02497565693570559
0.026119902106713628
0.027551841878410418
0.02913179500178267
0.030719959971271263
0.031944703977648106
0.03264127366227239
0.03262093805928438
0.03179102688926395
0.030066980815710905
0.02190061799585097
0.013734255175991032
0.005567892356131095
-0.002598470463728842
0.008455293031758909
0.015666849986420893
0.023280997449092903
0.032039512796021824
0.03941011113856863
0.04569103598402372
0.050866216410094596
0.05503782877747771
0.058093455482791045
0.060002602364497566
0.06066181959083093
0.059507937224497306
0.05606752561800619
0.050229656660947995
0.04240463834427042
0.03357260242120598
0.024834259810788385
0.017122686199233014
0.011446412379826772
0.008583129622758678
0.00843472702333898
0.010486303265888135
0.013707825695330682
0.016892025046791513
0.019369024749156732
0.02072786066805449
0.020871306213437617
0.020000997057653503
0.01862983678706539
0.01730909975904886
0.01646133506711807
0.015914915860173975
0.015152803684686198
0.014370385750672426
0.013264120494434718
0.011567288136698925
0.009397732567121146
0.006676109909715641
0.004060865200452759
0.0030125415490195044
0.004095057959311886
0.007172788317812192
0.012150491027582942
0.017235644783503683
0.021543608073820178
0.024944894772182175
0.026716024829425887
0.027652217438968986
0.02824274870978697
0.028658926799514862
0.029160289104118622
0.02971652807712053
0.03045885350263312
0.03129344919212352
0.03224289806167604
0.03309355388774057
0.033677010733364494
0.03380555662789447
0.03327256911911784
0.031981968372817096
0.023504045849555868
0.01502612332629464
0.006548200803033411
-0.0019297217202278172
0.022216515002156382
0.03027576333110344
0.031804038028552466
0.0376525945105377
0.04586875471152804
0.054492376209301946
0.06194131377174343
0.06789319639458241
0.07185422054650324
0.07361418515569998
0.07302600863220937
0.06964199379426608
0.06349089642002455
0.05508514786134248
0.04543752736141163
0.035672853102315744
0.026756130813474988
0.019491241132269733
0.014516021853305043
0.01211689246030399
0.012049742502798323
0.013762688586920287
0.016388423495979628
0.01908348549119447
0.021325708308262532
0.022738715431304405
0.023064596545241907
0.02230204215113133
0.02076505318254667
0.01894833578213868
0.01762996255483784
0.017612258210015434
0.018975267914196133
0.021108194816855937
0.02326248055881737
0.024277039085566846
0.023226560984284963
0.019846096103950776
0.014730865247347447
0.01033943764598295
0.008629387926177595
0.010285116307532675
0.015626034160956526
0.021881251610899623
0.027092635478885695
0.031113283048648546
0.03310173092243494
0.0337857421269086
0.03382203620822684
0.03358458783340579
0.0332785198635082
0.03292135813872374
0.03275892441357772
0.03267935896647255
0.032880915445494735
0.033345444807779144
0.03385705394942837
0.03420691074459229
0.03404739672790108
0.03326919006688361
0.024659323140746578
0.01604945621460955
0.00743958928847252
-0.0011702776376645088
0.020614664023945066
0.028471531721344513
0.030509457378557352
0.03671573064866247
0.04501634432409231
0.053518399702583444
0.06078871657360295
0.06658200410367675
0.0704565425594266
0.07222960589540775
0.07176689665622937
0.06861112670404655
0.0627401604545157
0.054600691211637874
0.04514040753519936
0.03546830765340568
0.026563249498742843
0.01924909069078514
0.014203211210227626
0.011751146551737687
0.011668419189981844
0.013404876113559405
0.01607749440798812
0.018820247124214554
0.021092848060251523
0.022510046108724233
0.022827632283474578
0.022062582618994422
0.020547912634626124
0.01878549891150494
0.017519278385155705
0.017447837074117654
0.01856946448663349
0.020362610953351616
0.02212717188044047
0.022791119992587143
0.021557599712223704
0.018216760332112853
0.013374402187023448
0.00938677552168949
0.008048408490108048
0.00991196587203082
0.015244549373918394
0.021384095075578934
0.02650216235954913
0.03046031806028213
0.03243196278575287
0.03315274949438228
0.0332604619231878
0.03310401906793375
0.032892632934530416
0.03263606984087795
0.03256887393592475
0.03258323366468685
0.0328599028824996
0.033360709268452804
0.033876518416632556
0.03420175410251327
0.034003568904070795
0.033174016515722916
0.02456924686831473
0.01596447722090654
0.007359707573498353
-0.0012450620739098348
0.018570435738562655
0.02619830527495911
0.028923112510352567
0.035598712900035766
0.04397722580835315
0.052293905631067124
0.059322029393182936
0.06490771320896448
0.06867185141815728
0.07046355283703636
0.07016200678495862
0.06729708354391312
0.061781839023194965
0.05398012416241068
0.04475797915299103
0.03520453826450227
0.02631611640063809
0.018940015304979105
0.013803860829523847
0.011285603508912374
0.011185146790473435
0.012955157309750762
0.015691815008560674
0.018496593606680538
0.02080630249335636
0.022225951162822378
0.02252973037051488
0.02175878637958761
0.02027085471218384
0.018576501676861333
0.0173754591619016
0.0172354430383803
0.01805715594496345
0.019430443602271124
0.020715852729238583
0.02095534260325152
0.019508447003545485
0.016224619147372187
0.011720988734952786
0.008229163402532757
0.007338979531708166
0.00944968062852749
0.014765837459119904
0.020755907762444643
0.025754359704392864
0.0296320100853795
0.03158043608434155
0.03234510566990144
0.032540030878895204
0.03248321211908206
0.032389392756746356
0.03225924584635364
0.0323128297710182
0.03244695714455813
0.032819971855530254
0.03336813259499561
0.033890322078246445
0.034184763047631454
0.0339373297993513
0.03304182851288125
0.024445987597361805
0.015850146681842363
0.007254305766322921
-0.001341535149196521
0.008358116338064145
0.015792882791173052
0.02424965269038644
0.03230242229645818
0.03877196770078032
0.04417797046205316
0.04870248073540933
0.052413539042756314
0.05523933739462321
0.05716637266922988
0.05807938612629712
0.05738388456997432
0.054498604457028345
0.04918530582681763
0.04173731230417468
0.03310840603402607
0.024430629901170123
0.016643853667477854
0.01081954115896773
0.007886181869801468
0.007744936700236391
0.009894992443421013
0.013281008985373977
0.016562140402494728
0.019062448080046195
0.020379339888882752
0.020454787882931532
0.01953794647622399
0.018185616215330026
0.016956889698103456
0.016194650249066803
0.015538037883683421
0.014405530755715802
0.013141909931596387
0.01152889325125091
0.009493069647713818
0.0073087118766771335
0.004820637465442152
0.0027427552271732975
0.0021964219035113136
0.003589112005882382
0.006764993059583047
0.011516167634684243
0.01635868518818424
0.020494854093737143
0.02377329915843765
0.025485092283728538
0.026435569237626876
0.027087577710517105
0.027587422665396894
0.028211719997721846
0.02892976722106436
0.029847500464733955
0.030866546903589653
0.03197154693795169
0.032909463443659984
0.03351614701122987
0.03360521159737294
0.0329980526927764
0.03160123585557
0.023178163267861283
0.014755090680152565
0.006332018092443846
-0.0020910544952648727
0.010855562470127495
0.018583105924465923
0.025909367474712793
0.03291684050976825
0.038464874166212255
0.04305128748571604
0.046987839801538304
0.0502871764534794
0.05290275231367911
0.05483290677281874
0.05594873896827632
0.05562770159554816
0.05319778629699534
0.048314924991945556
0.04117753481361426
0.032719032094541044
0.024099476303336566
0.016259943351503672
0.010313971606824839
0.007335847067610802
0.007208255077551288
0.009443882312941358
0.012975765120191248
0.016329318489354663
0.01883893889207189
0.020111976433341932
0.02012318916172631
0.019161617435067654
0.017820497420034657
0.01666432712645766
0.015968997171949714
0.015221679461632845