# vtk DataFile Version 3.0
vtk output
ASCII
DATASET POLYDATA
POINTS 5568 float
0.0 0.0 0.0
0.17196383227338907 -0.026617988249609037 0.9847435824068076
0.34758434368738816 -0.0725976925722478 1.9681271813960768
0.5159055994027701 -0.12976525208678003 2.952200260498208
0.6643083648936359 -0.19337310601887503 3.9390795135544345
0.7815040119164759 -0.2580114694491502 4.930082572223758
0.8570958532402392 -0.31801685186970563 5.925414289595331
0.8831361599766787 -0.37043806817387726 6.923699779075301
0.8531915619725433 -0.41411153917868715 7.922296769347534
0.7627747429339579 -0.4485380772999439 8.917605571834446
0.6093470915883035 -0.47296181037482654 9.905463576339772
0.39101038529510057 -0.48573682068723834 10.881253452182186
0.10742089976089153 -0.4849241772961481 11.840198885095425
-0.2397425041649549 -0.46992909649735437 12.777883650102545
-0.6467819044212509 -0.4418469935478577 13.690862468111446
-1.1071899348460499 -0.40324940674585097 14.577730367977834
-1.6121290050190296 -0.3574929694078559 15.439671713926026
-2.1518076241980166 -0.3077465282835896 16.28007178508055
-2.7166751890550205 -0.25640968475399584 17.10365490940313
-3.2982611502040613 -0.20525339602292003 17.915529779021355
-3.8894342904794503 -0.15581381922279935 18.720557757704555
-4.484356644911786 -0.10943775198129613 19.523001931827526
-5.078182638272899 -0.06727870162419547 20.326490142121663
-5.666601846871545 -0.030333525454117605 21.134201655540846
-6.245501765643079 0.0005983932121547131 21.9490133518572
-6.810898721201642 0.025072605952180416 22.773469109042427
-7.359305164142471 0.043179751850110026 23.609484960930665
-7.88814825851388 0.055499695640427005 24.458115151603067
-8.396346143965044 0.063023764419334 25.31932261651032
-8.88436931460856 0.06663971053878082 26.192145800121246
-9.353722101415803 0.0675661218753506 27.075156051068713
-9.806283781831217 0.06767052343342583 27.966889147078888
-10.243883163530024 0.06937017093200493 28.866057591996302
-10.66852793341412 0.07596991964589761 29.771393586380153
-11.082565905714745 0.09199295931893514 30.68151216090373
-11.489351506437341 0.12112307287050705 31.59457125621423
-11.893156734443666 0.16427432106311968 32.50839799450447
-12.295843577233576 0.22180308316685626 33.42192618135735
-12.697903105402647 0.29336777095559374 34.33473866553478
-13.099206362255932 0.37666267457412617 35.24688868338827
-13.49935007740255 0.4682242804764529 36.158755712923416
-13.897548243014462 0.5646828982411732 37.070969479516656
-14.29284942236937 0.6626909809591859 37.98427741954705
-14.684607135376812 0.756329631537746 38.8995684647436
-15.073215885591681 0.839155609401465 39.8172411169717
-15.458097688688545 0.9055295555978047 40.73781729356505
-15.83836828289675 0.9489791786023261 41.66167139754538
-16.21254599312621 0.9665415876597909 42.58886210228499
-16.57867380073201 0.9574585119117593 43.51938234721936
-16.9340430531125 0.9216095090318293 44.453420645928276
-17.274708760909476 0.8608084906330611 45.391637098402256
-17.595608414023207 0.7785374818459101 46.33517029535117
-17.89232159991276 0.6803905227436742 47.285080006712334
-18.161681869368497 0.5720671041888926 48.242007946648954
-18.401737438551557 0.45910942131953836 49.20617281096676
-18.611735768553565 0.3462714986644194 50.17734133630479
-18.79134067862845 0.23721278657767553 51.15501626878234
-18.939927609330777 0.13539560216909124 52.1386600991313
-19.057070563234497 0.044902714688659584 53.127643701455504
-19.14352967195358 -0.030988507814069255 54.12100433328391
-19.20064460119709 -0.08986791962869967 55.11763420426003
-19.230212271653905 -0.13013562488992358 56.11638555708853
-19.23445977301322 -0.1511269200339439 57.11615619291476
-19.216607297700808 -0.15315225288166634 58.115994773462674
0.0 0.0 0.0
0.20025167070440308 -0.01663443943799492 0.979603268575947
0.40475263931409877 -0.05744015464500585 1.95761873238219
0.6028231318691267 -0.11262013774845303 2.9362520904094507
0.7802669701996935 -0.17761219373536685 3.918234634499268
0.9238492576792903 -0.24599054892184913 4.905507913416569
1.0212929265748452 -0.3105250931329937 5.898654440367972
1.0640518194069615 -0.36794539306891827 6.896088441311914
1.0461586807909649 -0.41743836248215993 7.894702621848686
0.964011033991521 -0.4590031013346013 8.890455671861309
0.8156289313589091 -0.49226179508114287 9.878826356831578
0.5990052246482779 -0.5154550668082737 10.85480598870795
0.31367163633024836 -0.526132336986383 11.813174779559938
-0.038526939758638745 -0.5235255614368824 12.749096447073944
-0.45386366756980223 -0.5087883823655209 13.65864480647224
-0.925527170661447 -0.4844495716168048 14.540087466060859
-1.4439832696301036 -0.4536737299965462 15.394637710935182
-1.998611223579345 -0.41922425757131154 16.226022739996747
-2.5790089116980317 -0.38289873204403213 17.039545314865848
-3.175890038888542 -0.3457519084128228 17.8410146115316
-3.7813728283641783 -0.30862864746629814 18.63600672164685
-4.389018562188686 -0.27233807913775177 19.429385355601198
-4.993543417238964 -0.23752400961719244 20.2252105123975
-5.590240443780282 -0.20473771407552488 21.027007068477285
-6.174600672856483 -0.17457095587936566 21.837940536385684
-6.7423476366919495 -0.14753720590437092 22.660699651447864
-7.290013189598472 -0.12388380364125584 23.497062586256057
-7.815383472083067 -0.10373541462263391 24.34769770703465
-8.31794984348868 -0.08701114242032348 25.212074558327824
-8.79876016135536 -0.07390121601720712 26.088801179380617
-9.259880266946864 -0.06416029020174752 26.976085441938867
-9.703625836682848 -0.05651806304866491 27.87220567143033
-10.13217997923324 -0.04886832218666293 28.775689389251323
-10.54797091060799 -0.03782418344875882 29.685082554161887
-10.953985907551056 -0.018220636571054105 30.598738683790064
-11.354411705140036 0.014176686486453316 31.514494980019546
-11.75417082887688 0.06017608655170348 32.42996027055916
-12.154951084195273 0.12008762719126154 33.344173481055
-12.556713520645122 0.19375046566870374 34.25694986708026
-12.95864432072596 0.2791880423744924 35.16862527666034
-13.359565912541306 0.3737363329260295 36.07984561114045
-13.757896161315196 0.4746864619316409 36.99151555380911
-14.151932664193655 0.5784801452019661 37.904730810861075
-14.540783288877227 0.6777961231312932 38.8206628652249
-14.92540272599514 0.7650225160301223 39.73960761055671
-15.30557661626269 0.834140855898967 40.66193643925752
-15.680919164156274 0.8794079409808668 41.58771657662759
-16.05028107183525 0.8986310620235303 42.51680336093416
-16.412053120483474 0.891169767142262 43.44904008725187
-16.763952691352976 0.8569650276940296 44.384452684890555
-17.10223737378303 0.7977560014334725 45.32363198877373
-17.421839993536036 0.7166298173910902 46.26770439474148
-17.718141131907558 0.6187942434286104 47.2177748320603
-17.987901270301087 0.509854071455588 48.174520099445715
-18.229024628845046 0.3953162236625565 49.1382319896844
-18.44067405999754 0.2800565435326513 50.108757478494034
-18.622520690732205 0.16773813204473476 51.08564865837605
-18.773720616060057 0.061894795578980255 52.068468972933424
-18.893751994100597 -0.03291467396827441 53.05670155323517
-18.983470043743985 -0.11305340315432078 54.04943941171174
-19.044292495039493 -0.17601197251838707 55.04560046694429
-19.07813394887808 -0.22028488499659604 56.04404659229247
-19.087258177739706 -0.2454446034056572 57.04368839664904
-19.074790042336318 -0.2521410872391395 58.04358824298558
0.0 0.0 0.0
0.09538568692878602 -0.05324545557419802 0.9940153380053147
0.19444555360111837 -0.11232957363787222 1.987341170654148
0.2848178291209058 -0.1740120735787533 2.9813372073758337
0.357616546859471 -0.2333689310272053 3.976915988874046
0.4059100860766556 -0.28786933491289074 4.974261184905076
0.42379197307293803 -0.3358266697770758 5.972950492022248
0.4050456067121211 -0.37507274080377484 6.972004204120468
0.34234461147726813 -0.4035336806988275 7.969630667330446
0.22908003648763653 -0.41939105488813777 8.963068979323817
0.061270057859623694 -0.4208755528126401 9.94888722187098
-0.1627286936357052 -0.40662256085518966 10.923372425221341
-0.4428592752039342 -0.37598915368597763 11.882845432468264
-0.777777105277609 -0.3288089958529997 12.82391082860479
-1.163836987519488 -0.2660253431389374 13.744245539606862
-1.595269320949723 -0.19031208936971933 14.643208077688744
-2.064942713017583 -0.10550019359253515 15.52196506748635
-2.5651421927051583 -0.015774553059365592 16.383214038429823
-3.0885472784709957 0.0749448717827107 17.230454914539315
-3.628946824750762 0.16307287701096584 18.067235522031574
-4.18133952885466 0.24535053832062736 18.896749046274667
-4.74153865092553 0.31911221647176724 19.72181641229235
-5.305780772537651 0.3819583012337062 20.545030356433692
-5.87057726211719 0.43182596240083915 21.368752482959593
-6.4326207109868285 0.4673451578284509 22.195097173956576
-6.98863144134766 0.4879750269233556 23.026016229114624
-7.535240932889027 0.49429612326249805 23.863380013558373
-8.06923078358389 0.4885267567180116 24.708851215767268
-8.588294631840604 0.47407237639796973 25.56346445713584
-9.091577983336688 0.4548408751962061 26.427371869691374
-9.579171604481894 0.4348285259192681 27.30021318774118
-10.051800673879546 0.41749431798590364 28.181304152395587
-10.510348939048617 0.4058793021077389 29.069897748994496
-10.955723494896175 0.40287383263849685 29.965237054597047
-11.388672131733193 0.4113436535498787 30.86661585398979
-11.810148173982464 0.433849205077115 31.77317608142112
-12.221492120852973 0.4721347504669078 32.68385186038266
-12.624287645864378 0.5269163934271577 33.59750099250361
-13.020610311126234 0.5973806322749418 34.512904256668286
-13.412687104817586 0.6802006126215381 35.42910109070784
-13.802966275483577 0.7694249729248395 36.34546410964342
-14.192996430014638 0.8598208457364231 37.26181833413039
-14.58330454607426 0.9486396904300205 38.17820841884611
-14.973679351302309 1.0332563259977376 39.094967676464144
-15.36347457713662 1.110372565715822 40.012634700764636
[...]
CELL_DATA 87
SCALARS quad_param_group int 1
LOOKUP_TABLE default
3
3
3
3
0
1
2
3
1
0
0
0
1
0
0
0
1
1
1
3
2
0
1
2
2
0
0
2
2
1
2
3
3
2
0
0
1
1
1
2
0
3
3
2
3
0
0
3
3
3
2
1
3
2
2
2
2
2
2
2
1
1
0
1
3
3
3
2
3
2
3
3
0
0
3
1
1
3
1
1
0
0
0
1
2
1
1
SCALARS single_component_feature float 1
LOOKUP_TABLE default
0.027865558205987177
0.05272084293353115
-0.042065543704303834
-0.06335114207384553
-0.028851231906775694
0.016475274429687152
0.017132782117301616
-0.029453591918601238
0.023416731136880947
0.06752557966687438
0.06276466373579878
-0.016841817318679207
0.010381105622553684
-0.09294853447072991
-0.004109181678826818
0.11158335223314522
0.030591775712265686
-0.009019676531845336
-0.05348608632525799
0.036240708556838405
0.06377721358982745
0.05762237243782983
-0.027809507198152443
-0.10206484518468918
-0.05968246301077193
0.05159205855408328
0.004451224072498039
0.03894618908807748
0.022883190983241673
-0.03175943411700099
0.06577665369197883
-0.03193841789123483
0.054282638735127606
0.0065395152698819355
-0.021044525458234074
-0.02760724393609093
-0.033788078732642245
-0.010961713207741794
-0.03252128265175766
-0.07977020834329278
-0.08211688836195606
0.10226934221198268
-0.044185198868989285
0.055504438195767614
0.043105521761185345
-0.004038361303752574
-0.041041770585027684
0.001299041684198074
-0.0073281642998403035
-0.03341494766567152
0.062436044039746806
-0.018558456729186476
-0.04132504445376477
0.07777938030524445
0.049745462538900366
-0.09296837112912093
-0.05251236599028302
-0.008708846294259066
0.027574371788395446
0.027045275839561927
-0.07009282684446469
-0.0339883643173966
0.02174735132402955
-0.06251802855176564
0.007689343183734841
-0.04461017633770138
0.00040174756730421667
0.09126492629958788
0.017457356336175532
0.01852750460176503
0.004219159219752008
-0.05609372086532155
0.10831181941602952
0.09572753691567998
0.009504578479961404
0.015055182324833438
-0.03477292075524785
0.006985337300805541
0.026429354962412777
-0.01164062711678715
0.028487794534561656
-0.027658654397628178
0.007766779830384634
-0.08292539178350156
0.012090355916583771
-0.016212390204783225
-0.07520839483507083
POINT_DATA 5568
SCALARS single_curvature float 1
LOOKUP_TABLE default
0.013560585005860893
0.021430975290605437
0.027008926078460456
0.03620561337300393
0.04507150278549808
0.0524896031895202
0.05800406705300721
0.062189837494958565
0.06519385815902795
0.06699687518779295
0.06745611384944646
0.06579007961329691
0.061509501403436286
0.05467851282991777
0.04577096845574319
0.03581279510825874
0.025919792888806636
0.0170304882102818
0.010570603484330032
0.007622544191515933
0.007973932453599987
0.011052892715931118
0.015310206510454474
0.01915092984673828
0.021982965831874854
0.023431943417508955
0.023412984373166586
0.022152185012129556
0.020187926723640216
0.01807801827469987
0.016462296663374953
0.015544159212641306
0.01493711165527256
0.014752797024058963
0.014526777887070387
0.013653913848757923
0.01215361084531902
0.009868151681971733
0.0072170795238848656
0.005765120695408093
0.006554692098020293
0.009513401390505157
0.01454959816054042
0.019756982380870328
0.023884969467312736
0.026868431540283223
0.028279409437716476
0.028993727563140347
0.029391389372624914
0.029630025639797403
0.02994886592214761
0.03024827105319481
0.030669009491295238
0.03126569146372244
0.0320910769174409
0.032939607450657826
0.03362981451483369
0.033856054220543164
0.03335538212051246
0.03207244274350486
0.023561333799814857
0.015050224856124853
0.006539115912434848
-0.0019719930312551565
0.015857255039737783
0.024462244865432553
0.02997449261907868
0.03984540568290521
0.049343013397237526
0.056905767438135996
0.062004054382363144
0.06567654539584633
0.06837170375620938
0.0701021539958663
0.0706811740495312
0.06909005419889043
0.06469790299989908
0.057568308401309456
0.04808427766795641
0.03730167687784656
0.026421640387513885
0.016357181244841815
0.009564374202278143
0.006968627101639184
0.008169994840299129
0.012621127104906787
0.017684094838942354
0.021844672293791757
0.024660119712323823
0.025820402071627748
0.025347006855733066
0.02357386786842406
0.02108515765510276
0.018384646263273855
0.01615567548605041
0.014784530417437106
0.013969659464379705
0.013853928604003456
0.01390042009517939
0.013327774915866186
0.012217064777494183
0.010446216148074394
0.008325433708148897
0.007211339207035915
0.008206342211077008
0.01121318736620062
0.016012421050372715
0.02089893531531319
0.024587139469234912
0.027018366271678893
0.028052204195394406
0.028623092966117453
0.02896593855201337
0.02917836593224009
0.02949801584819092
0.029759735362909417
0.03008999063152895
0.03067547479089374
0.03155057133038263
0.03247850801484991
0.033270926543049216
0.033525440204799396
0.03296726985516769
0.031577779233778705
0.023137606776607138
0.01469743431943557
0.006257261862264003
-0.002182910594907564
0.008455279520659404
0.014714963852122075
0.020763032064187687
0.02789690293726271
0.03475832702523499
0.04155306682944376
0.04798108062699627
0.0534096265164797
0.0571662420014256
0.05911732964692341
0.05922379705751348
0.057320609109618725
0.053294194079186695
0.047168364229114544
0.039632024095643203
0.03172857111628301
0.02448614255879279
0.018701876078448115
0.014869246064480115
0.013089021700814395
0.013001344803505236
0.014082304978566055
0.015708497143614154
0.017274277264585317
0.01844771968612961
0.019003275057996916
0.018947845723043234
0.018455780471883624
0.017808443729819864
0.017357511643130475
0.017329556589964667
0.017718752449269296
0.018281032165721377
0.01870421560433943
0.018478406972122993
0.017037773514035646
0.013902453654563917
0.009498729725315477
0.005635460527583284
0.0034180587173904212
0.003648893954206858
0.006366313139903368
0.01103101889355974
0.016380322392138207
0.02137319975754671
0.02571588237722104
0.028197664047980176
0.029394453931368556
0.030025574846650707
0.030367451093945026
0.03066410990340211
0.031007015372230513
0.03160514147689787
0.032149730381127804
0.03273232100290155
0.033273348721883554
0.03359680624905404
0.03369265080169757
0.03335739309129362
0.03242247704082003
0.023986046962461947
0.015549616884103862
0.007113186805745776
-0.0013232432726123095
0.007717485021078177
0.013624483537191305
0.01958681618936569
0.0259510248198598
0.0321165794586301
0.0386547314181972
0.045288995811168055
0.0510376829024745
0.054989250361938725
0.05697011844329135
0.05696672268856852
0.05498561799158436
0.05102037234076579
0.045071783631448405
0.0378826757805343
0.03052517262594451
0.024021571429278406
0.019095042865142537
0.0160836119149608
0.01491335410276181
0.015092251012711453
0.016077546141865164
0.01729717213901529
0.01819759327099559
0.01859374957470737
0.018440736131905756
0.017962907785358265
0.017465777826020337
0.017145107976320646
0.01719611754831079
0.017637527386633885
0.018437371434057288
0.01951054646314839
0.020352136143455376
0.020312382112424473
0.018722360325572104
0.014849598195703287
0.00970956680922355
0.005783890088360538
0.0034355814798197894
0.003613484711164739
0.006136128153926417
0.010174275564526058
0.01534075180584985
0.020471208973184243
0.025145333484408727
0.027935872124914208
0.0292921434761537
0.030010980117764458
0.03038887938510904
0.030672762757146723
0.031012123168875066
0.03164284829926787
0.03215254314425513
0.032637927820740764
0.0330657147738896
0.03325844988379269
0.03329896753554884
0.03300957849007212
0.032187604869171486
0.02386004503507594
0.01553248520098039
0.007204925366884843
-0.001122634467210705
0.009197520057926373
0.01570861579613605
0.02167328916223487
0.029241905101831236
0.03651444294163853
0.0434526665049219
0.04973626303724277
0.05495254274875724
0.058580097472146216
0.060509200451508253
0.060683486791009975
0.058827509990029205
0.054759433073019684
0.0485150193102446
0.04074706923733087
0.032485992291445116
0.02476678347233373
0.018429341979975956
0.014078917109519883
0.011946924843785683
0.011760985276119466
0.013005847794584637
0.014987672453213653
0.01701054887278886
0.018634619873057687
0.019543851245589328
0.01965688381857494
0.01910824998690575
0.01823738168512378
0.017474241673642303
0.017154480988777747
0.017292648742481286
0.017572260833815585
0.017788893040075273
0.01748674538584664
0.016138705985362385
0.01339887381734475
0.009506312261480866
0.005712524566685122
0.003601389269076725
0.0039018828462794885
0.00663926415878264
0.011616185140995564
0.017029313268939514
0.021906458462335722
0.026021797058610786
0.028305657254895738
0.029405026044623393
0.02998464318438898
0.030304722648423175
0.030608004964056697
0.030949544949656974
0.031522717553640174
0.03208523060556284
0.03272357107596489
0.03333095709177081
0.033731709912003666
0.033858305704296564
0.03349301893738212
0.03248892250117802
0.024004609807717885
0.015520297114257751
0.007035984420797618
-0.0014483282726625163
0.012572353681304818
0.020133839076148984
0.025767929508390748
0.03465460758921008
0.04321999205065511
0.0505589337866567
0.056247792021932176
0.06065619222902415
0.06379449490228253
0.06562711470403361
0.06603020621854766
0.0643279397557907
0.06009459290722085
0.053391792889393025
0.044732502476992606
0.03513602193053217
0.02569227409544707
0.017336889529002916
0.01124083366703826
0.008304369448905224
0.008393083355325286
0.010948549760500043
0.014700785745290023
0.018264544629054656
0.02098564851116607
0.02246343474205752
0.02257813228116429
0.02151541522260341
0.019784441433363126
0.017945676175143397
0.016599502330293302
0.015891373777165825
0.01541759210660079
0.015250323724908338
0.014951305022576569
0.013964872934536623
0.012263845414150844
0.009716358394139946
0.00681215949006473
0.005208121972207688
0.005890281817606605
0.008804651884303068
0.01391140030243029
0.019221921154098515
0.02353093812970167
0.026758535288834796
0.0283450821169625
0.0291309571455256
0.029559146898657802
0.029811992539232116
0.030129361609398154
0.030442176626080158
0.030899614027406375
0.03149576887874004
0.0322913410711902
0.03309781481454677
0.03373596234491311
0.03394629431388408
0.03347288758172951
0.032242606714785606
0.023714365988268295
0.015186125261750984
0.006657884535233673
-0.0018703561912836383
0.012628153365671168
0.020206987741357662
0.025837429100172612
0.03474209736821535
0.04332505401469503
0.05066879299601983
0.05634786119091828
0.06074362521730903
0.06387430036824171
0.0657052718413462
0.06611162268671376
0.06441147714714396
0.06017546831434526
0.053465413797082355
0.044792062320615236
0.035174983869313774
0.02570542000730638
0.01731946308474008
0.011200540306663603
0.008260590555115159
0.008362174259863851
0.010945788368937356
0.01472766216697333
0.018309432093369656
0.021039005146774616
0.0225169994812868
0.022625353427278855
0.021551883647310366
0.019807592189834158
0.017953178090010707
0.01659161104177054
0.015871330534767726
0.015389219863842608
0.015220112192003902
0.014924463328037206
0.013944245430535167
0.012255312904434771
0.009723568196325248
0.0068341608555360705
0.005238745543723798
0.00592717524217546
0.008844327294560238
0.01394764186431409
0.019253013146707496
0.02355196404937444
0.02676565590432276
0.028342041925569113
0.0291236938710668
0.029550031654575416
0.029802022345597628
0.0301194974883855
0.030431606444199365
0.03088700880675722
0.03148328758921796
0.03228069576895311
0.03308969064115623
0.03373093078038246
0.03394223452206786
0.033467245626695584
0.03223386805102315
0.023706327938235086
0.015178787825447022
0.006651247712658959
-0.001876292400129105
0.009160555955880898
0.015659649465502835
0.021628842425172663
0.029178296029748675
0.03643244769772724
0.043364395439088696
0.049654853100640085
0.054881035378798994
0.05851460666608609
0.06044477073782065
0.0606159737547
0.058757865836174296
0.0546917504303398
0.04845288685337188
0.04069576626303637
0.032451303479299504
0.024754115519894166
0.018442238340507854
0.014115517442835328
0.011998932730985623
0.011816125210369741
0.013051579702728402
0.01501543683241456
0.017016955604222863
0.018621291474999507
0.019516033137971296
0.01962302386502838
0.019077943379105716
0.01821757648905013
0.017468680675716542
0.01716225452848782
0.01731181066936022
0.017603715046358222
0.01782885113468114
0.017529484709403284
0.0161771802493272
0.013420327080422055
0.009505734010453655
0.005707100281291575
0.0035906825016703767
0.0038874488180431588
0.006623470757058706
0.01158863704594204
0.016999743642125566
0.021882669866660903
0.026008714609492247
0.02830168065408927
0.029405449681449116
0.02998735500694187
0.030308413557370014
0.03061141766366333
0.03095308417663493
0.03152747679267166
0.03208924262340763
0.0327251273063389
0.03332956124849502
0.033726862020106635
0.03385211791057894
0.03348822212100515
0.03248725764541527
0.02400478625801509
0.015522314870614909
0.007039843483214729
-0.0014426279041854506
0.013169275513367754
0.020916907426454988
0.026514962410965594
0.035590913046486566
0.04434038947513241
0.051728563296599826
0.057312356206438965
0.06158602350195672
0.0646430346592817
0.06645788009668527
0.06689527082528644
0.06521521587650815
0.06095336895504148
0.05417308590705105
0.04536368637155857
0.035548009039801494
0.025830947216655322
0.01715121084344778
0.010824073922132069
0.007867912361560179
0.008106694247566763
0.010972241150277494
0.015035657483483037
0.018777414933627532
0.021575198122029855
0.02304355620980796
0.02308273196246766
0.02190223983477509
0.02002972676826469
0.018025728122084403
0.016516038931083526
0.015679794297335757
0.015122001124953627
0.014940617514100607
0.01468235916997166
0.013763586262466697
0.012187007723557181
0.009801768767931419
0.007052628808134064
0.005540667938707472
0.006288715013843531
0.009231211419053779
0.014297752752023248
0.019548900900153834
0.0237492504478594
0.026828860481534152
0.02830828131673525
0.029050137111210243
0.029459326871829988
0.02970335853564481
0.03002171523374485
0.030326654780554494
0.03076209128425934
0.03135897971313229
0.03217322855192332
0.03300574427182406
0.03367600239530404
0.03389626075795358
0.03340619601344815
0.03214356788521487
0.023624523132428226
0.01510547837964158
0.006586433626854935
-0.0019326111259317102
0.01730209354236855
0.026382925149504025
0.03189596034035384
0.04217419120367628
0.052036909420037004
0.05966858544948006
0.0644956495359012
0.06784458966231283
0.07034544578175146
0.07202722012218533
0.07267536736099046
0.07112574467170184
0.06666129083006277
0.05934120140935777
0.04949085939016938
0.038195115782980606
0.026732611413865934
0.01606132126008065
0.009440448548419772
0.007274094568097469
0.009133259661971744
0.014436800478274779
0.019705375290891506
0.02389029815634383
0.026544147236732988
0.02740047044847169
0.02656199713701075
0.0244376561959645
0.021629802091914514
0.018580237177251227
0.015966295409396394
0.014331503434044598
0.0134478299911603
0.01343748966170268
0.013725022965066735
0.013371913228840652
0.012476074265056106
0.010992360355879797
0.00917531033829727
0.00825348233604955
0.009335114023146586
0.01232331103003284
0.016924938162720365
0.02156482005929813
0.02496609070229794
0.027059682231095294
0.027874956645589272
0.028369285602569475
0.028687260798814163
0.028887439812899963
0.029206360486765025
0.02944055155692682
0.02971052103661407
0.030281089779920323
0.031175333258227335
0.032142189646137354
0.03298795599302115
0.033255499353329346
0.03266520192998105
0.031218600937430698
0.022839019603606306
0.014459438269781914
0.006079856935957521
-0.002299724397866871
0.016831876749946118
0.02575664029226916
0.03126606434589076
0.041412533703063296
0.051158501889100524
0.05876935207453911
0.06368553487618854
0.06713996523958901
0.06970414669646315
0.07140203416869711
0.07202815875859461
0.07046547197649893
0.06602476431899337
0.058766982110700264
0.04903631901979971
0.0379073349758258
0.0266310358453925
0.016129704837556852
0.00943074963615515
0.007111209039123603
0.008748531567765661
0.013793586491273751
0.019011621926981383
0.023199860544440804
0.025916772235460073
0.026880691237410975
0.026166673571038523
0.024158695328889614
0.021453844466241236
0.018516153159923405
0.016027790349890526
0.014477047707714522
0.013611020571055295
0.013561837826649216
0.01376518697730234
0.013337923044343131
0.012373680009500137
0.01079836743245143
0.008884520551895616
0.007902261982302648
0.008959732310725802
0.011958454119808287
0.01662831896443982
0.021351638594168734
0.02484698157306835
0.027049649483672666
0.02793461122636129
0.028452819201218216
0.0287781647149526
0.028982000950834724
0.029301231931754625
0.02954465905176203
0.029834506707269975
0.03041054485012075
0.03129950060054116
0.03225453636197049
0.03308376249983896
0.03334740509013311
0.032767225778361296
0.03133842917609321
0.02293808135858516
0.01453773354107711
0.006137385723569061
-0.002262962093938989
0.00998574370753951
0.016746915696168634
0.022616746019255528
0.030555943720270963
0.03818808492131018
0.04524616624880797
0.051387353270478
0.05640166358459315
0.059906606638591285
0.061813366169940515
0.06204893521631145
0.06023500309147393
0.0561265589138295
0.049768571808108716
0.04177922899977085
0.03318068624135551
0.02501699684075251
0.018162907945445814
0.013338890191613734
0.010916430321643638
0.01069917051581646
0.012172993641546672
0.01454754498400858
0.017001700512464624
0.018998132227649973
0.020160895839994947
0.02036118101485793
0.019722805090439836
0.01863684438717316
0.017589437401124702
0.017002744314379547
0.016914790594085825
0.016961426206484307
0.017026967465777917
0.016683962474042142
0.01542265174844217
0.013002920127851548
0.009524587841024931
0.005887442465047606
0.0038903546346748413
0.004274857444747231
0.007047515760983855
0.012182452562700593
0.017617560507244667
0.022369466329484073
0.026264840467699717
0.02836581213864198
0.02937847188564358
0.029913805103657046
0.030214731741917276
0.03052306920847585
0.030860744168481967
0.031407897415101096
0.03198380371808637
0.03266926837509696
0.03333395728267591
0.033802014901419555
0.033954076406302526
0.03356068753883416
0.032494681275439134
0.023980570374710092
0.01546645947398105
0.006952348573252009
-0.0015617623274770329
0.012062940829165387
0.019466461392534756
0.025136604823916792
0.033855720484923406
0.04225681933272168
0.049549949634404206
0.055327941428932964
0.059852207720099346
0.06306048443878566
0.06490803409216087
0.06528081839547344
0.06355873045678109
0.05934968607697326
0.052713285676864285
0.04418275932117471
0.034775541910275896
0.02557023809323486
0.017496600118315393
0.011619642667241317
0.008730509923168876
0.008713261383764903
0.011020257282867015
0.014498952875727
0.017885560961250487
0.02051638734098965
0.021981159615874435
0.022146398184305922
0.021179209701840104
0.019570721577715312
0.01787696022683488
0.016672576325127527
0.016077235525368407
0.015684311848042833
0.015539128857811899
0.015213675033845213
0.014171425725912248
0.01235496678219704
0.009657473066707277
0.006615249203729359
0.004932504547346533
0.005556605938631504
0.008444389479014871
0.013579142897030994
0.018932574203633746
0.023332563330198043
0.02668785090103812
0.0283686617253034
0.029194191797500383
0.029640057303653405
0.029901019143420585
0.03021727679140714
0.030536237008529567
0.031012047622946588
0.03160652138967918
0.032384423919505294
0.03316699797917529
0.033775978953024866
0.03397698445539283
0.033518268771449575
0.032316996825982255
0.02378400265655696
0.015251008487131665
0.0067180143177063695
-0.0018149798517189258
0.008349726501519042
0.013871842235106735
0.01852428688779878
0.023684297433978367
0.028821637565039002
0.03495256553947085
0.04182146593291451
0.04797107101610835
0.052166929902315876
0.05417781764536486
0.05402094856884534
0.05192822186929313
0.048036168541438266
0.042306562282815645
0.035548979259826675
0.028889504916288167
0.023349864558155752
0.01954991384831297
0.017650872335129703
0.017383477616584223
0.018100701351769548
0.0192345284848465
0.0201963751984547
0.020353946298699542
0.019633879105526574
0.018274205044993382
0.016939318497213817
0.01624018773696415
0.01629331429718065
0.01704141453469272
0.01814200373342575
0.019529301812803497
0.021420620968242356