# vtk DataFile Version 3.0
vtk output
ASCII
DATASET POLYDATA
POINTS 5568 float
0.0 0.0 0.0
0.13424164364168467 -0.027678287962368164 0.9905620089059802
0.2675727847066273 -0.05752608783859943 1.9811839931486421
0.3880363044963935 -0.08777198726250071 2.9734408782181787
0.48017494531893057 -0.112619491296433 3.9688769999309983
0.5278589195383812 -0.12394042249425591 4.96767531546795
0.5165357742970723 -0.11583402364342402 5.967578347106277
0.431025712101787 -0.08590853917156978 6.963466139301001
0.26141564217167546 -0.035853651418867344 7.947705405125307
0.007023102964948458 0.03115207200570393 8.912482409942639
-0.3247511320834621 0.11472046971990489 9.852132440465452
-0.7197363608650237 0.21539112367419547 10.765287459329606
-1.1574821054891673 0.328722728449196 11.657214928590744
-1.6189501593510267 0.44656301193374304 12.536510614269474
-2.090485350364804 0.5622884913102236 13.410731511445173
-2.5640470366169135 0.6725235494148308 14.284566485155159
-3.0324817722498665 0.7709571614184043 15.162564049206686
-3.4825531475109877 0.8504239552069773 16.052013758777456
-3.897402050019429 0.9062501355121492 16.96018985716371
-4.2617801361247025 0.9328222871821985 17.891061776990426
-4.565018933258999 0.9255251194220686 18.84394843512728
-4.79928656678582 0.8836700419106515 19.81521916379579
-4.962490812574089 0.8109294643801205 20.79912626435824
-5.057296440093785 0.7162745880639325 21.790111807835117
-5.088844693257104 0.6097216193119669 22.783918213817934
-5.064976980956468 0.5019030412622121 23.777802254607835
-4.992643530596482 0.40206872535592675 24.770173647447503
-4.882031161640674 0.31674508462624335 25.760367961795257
-4.746198811943555 0.24661659652960505 26.748614675897073
-4.595323229401591 0.1910328856623954 27.735603535853887
-4.434587297132512 0.1553694934777493 28.721956455723582
-4.266965420498633 0.15083364746710612 29.707797382331268
-4.099412256773772 0.18730412482079392 30.69298560881765
-3.9427408272097475 0.2825598448005568 31.676032103633386
-3.803478534462256 0.43938489752418947 32.65379072244323
-3.6821242128220355 0.6483780070555517 33.624148908263116
-3.5743443135001423 0.8919629504310234 34.58802123832708
-3.47209442937646 1.1471478981408565 35.54949178060023
-3.3714138733572936 1.4006046947353397 36.51158485192947
-3.2698527516396476 1.634788841512206 37.47845771014499
-3.1580800469129233 1.8152756830338854 38.45566360580649
-3.026191926412185 1.9177611346697159 39.44161606707112
-2.8700493820834927 1.8971383846065852 40.429135286139996
-2.683781268492445 1.7241969151850571 41.39629372094453
-2.4574239789094925 1.450388021417235 42.33106164248778
-2.1847139576674737 1.0997680683717745 43.22699405781864
-1.8521098669409601 0.6917486218673499 44.07722617324725
-1.4664819372514013 0.2751460724406999 44.90047183260693
-1.0233393022315536 -0.12794329591961148 45.70118624245763
-0.5028996339056472 -0.48970640630245205 46.474665397702914
0.1052768970499226 -0.7562190220425741 47.2223901684884
0.7679219672630266 -0.884110506806561 47.9603232813429
1.4386981414271045 -0.8704661106651876 48.70185760598859
2.0933983253843076 -0.7456047284305055 49.447362337263215
2.7314937583964047 -0.5354110304430384 50.188073365732116
3.3631052370831087 -0.2634964727051564 50.91411015080668
4.000145652569324 0.06467022891368637 51.61159572412398
4.649364584078248 0.4579496300397934 52.26263035578369
5.30964247593542 0.9199383356145454 52.854744822289966
5.973713898787999 1.4489855140274819 53.38306123161667
6.633055980677928 2.0348219951647546 53.85429751674097
7.2811514009311145 2.666628254729299 54.279495325556944
7.908911462338818 3.3361480759580817 54.676560199706216
8.50467828749044 4.040780211657433 55.061989108051876
0.0 0.0 0.0
-0.40518857651383217 -0.1521008796574455 0.9014918412665341
-1.1173472601735646 -0.2726335422446661 1.5930855706609472
-1.9549347174682628 -0.33275183590718294 2.136070876309
-2.8452423530294984 -0.33046328951522613 2.591424669108373
-3.7591643558938714 -0.2807786938004272 2.9942621222194625
-4.685005885247837 -0.1885496194925123 3.360747129246784
-5.615423773212804 -0.07375684522545228 3.7088062804422135
-6.5462994650378326 0.042921758433128746 4.055009327536772
-7.47627583926221 0.14896913857802557 4.407000657755123
-8.40304402377644 0.22895903882863078 4.7740188426316985
-9.323324011115197 0.28071824792295386 5.161840617649177
-10.227280651036084 0.306147509103538 5.588707980911758
-11.09660856536922 0.3032485038729499 6.0829352293814
-11.921571964076723 0.27174443493214684 6.647242667249392
-12.705629470774944 0.21457002997336722 7.265291948138689
-13.442779263007854 0.12868676700150022 7.935541341239707
-14.115138880339538 0.00798054668569291 8.665858089889676
-14.708337974744524 -0.1541330583430549 9.454422617028506
-15.22666185218144 -0.36703835949592933 10.282680844165286
-15.68411293804169 -0.6270414716796333 11.133055400287509
-16.100094524109483 -0.9103433879311236 11.99717306837488
-16.493662744581712 -1.1970069501900251 12.870630599058174
-16.880404315029814 -1.4714863697581604 13.75102369644188
-17.271702725186728 -1.7117956907486664 14.63935752133754
-17.690682680658114 -1.8718266661343317 15.53313930892907
-18.15133189342096 -1.9021834691324593 16.420202309675187
-18.648605247817088 -1.7827031252268724 17.279529755081082
-19.178377756647702 -1.5332679250387928 18.090161095330426
-19.74233440458319 -1.19164672314211 18.841990765976664
-20.334571786702686 -0.7803126674996699 19.53485379565063
-20.93794745175262 -0.32184903908770046 20.18734816976345
-21.543918777406617 0.14753515814827278 20.829592070373085
-22.14994338028326 0.6164607723096445 21.47212062934271
-22.754656118107416 1.0614980919089059 22.13262368677479
-23.37609267985204 1.4316161450326577 22.823151909571585
-24.007303447367875 1.7156169997565878 23.54489735049113
-24.628256312444464 1.910412131699961 24.30415514328903
-25.23937758265489 1.9894095190341854 25.091740190055894
-25.84027779545122 1.914398667229031 25.8875368389385
-26.431650867407846 1.6300580692026163 26.64214157923541
-26.98910569797184 1.1421479034350372 27.31384670949833
-27.479442025443255 0.5232193320117173 27.927440801254217
-27.895312669908904 -0.16686664555433234 28.51975233299949
-28.262474752008693 -0.8785027449986622 29.118723173221124
-28.599456209847958 -1.5658103424728573 29.762191714431005
-28.872464141664306 -2.21824524333355 30.469153785057326
-28.977521230929035 -2.7475136455066953 31.31107893995906
-28.904222604330403 -3.1215647593227187 32.2355858764348
-28.667633499540354 -3.3343384350167535 33.18361169803793
-28.317998253473213 -3.356600783739606 34.12023306365848
-27.92324622765257 -3.2243292401006123 35.02944980176544
-27.515037652542514 -2.9670332988580475 35.90532910727889
-27.11993587116462 -2.5659077391297638 36.731762932630126
-26.75945315357538 -2.0213966002810873 37.489100261691085
-26.42771976942632 -1.3760279680883631 38.17717895662554
-26.101037374402008 -0.6640068730696986 38.79871300479153
-25.766666221976752 0.09439914436978286 39.358191552313585
-25.421253287319704 0.8818101432521845 39.86875381434499
-25.075961373949955 1.6911665140861794 40.343849341109745
-24.730180687662173 2.5068670899157746 40.80760389643143
-24.38577314259718 3.3251640028877354 41.26779255896329
-24.05528971647352 4.144531228098598 41.73621336903456
-23.77295274862422 4.952537638717824 42.25333180516297
0.0 0.0 0.0
0.13659884263268207 -0.025347584940072877 0.9903021034659664
0.273856402157988 -0.053000622652275814 1.9804514214268711
0.40226799423534765 -0.0816065996642027 2.9717597292198357
0.5048821785221395 -0.1065310365701519 3.966168649950175
0.5617958049170277 -0.11952290927020365 4.964463220893205
0.5547492270833134 -0.11428891483237716 5.964424695672638
0.4646029030719979 -0.08708605578359421 6.959981647698397
0.27889461916796493 -0.037663641006392135 7.941342874875735
-0.0026784229374554047 0.032550914762900104 8.898310240106975
-0.3710639162520163 0.12419359935746976 9.823455497175122
-0.8106864076350643 0.2377973929480362 10.714424768896652
-1.300290725749687 0.36789348060749044 11.576609563276152
-1.8197157344028696 0.5047588388616356 12.420093726788192
-2.3531263406544025 0.6399293066635285 13.255079996000202
-2.8899232127806647 0.7695350458906263 14.088777465370752
-3.423594909299335 0.8883923448900595 14.926075179931972
-3.942609563233303 0.9896177759956074 15.774825556131772
-4.430926022907897 1.0682473090243887 16.643942597586225
-4.872043940679813 1.117984952357309 17.54001243273093
-5.252785305273592 1.1328504555873362 18.464574507499837
-5.56214062179123 1.11017609452488 19.415250667657794
-5.795270544823763 1.052341896836682 20.385974956302416
-5.952371196638494 0.9676480104386691 21.369919228508007
-6.036618536945919 0.866118428728898 22.361178089597765
-6.054874858892349 0.7590393085030144 23.355260967792855
-6.014975345239064 0.6564662240100912 24.349185910204422
-5.929841398185876 0.5657717810392875 25.34141911317304
-5.815736892823737 0.48839109473859743 26.331869713275687
-5.685294903074906 0.42426690149409524 27.321249809674995
-5.544880350696536 0.3789974044632513 28.310307151854385
-5.3979079584393945 0.3648793812579482 29.2993469879252
-5.251854004033916 0.3950721986937642 30.28816276256566
-5.118932194548994 0.49160822446475294 31.274576767074716
-5.007563908497674 0.6617375939822728 32.253685087174986
-4.919747670632191 0.8972908984138714 33.22157090127627
-4.850431622625879 1.1774736457226789 34.17901171594801
-4.788877510779798 1.4746142896804189 35.131859305556766
-4.729257613723538 1.7713394783942111 36.08495931618407
-4.669226576677074 2.0524547095133614 37.042753919125616
-4.599775211131916 2.284967942087945 38.01286427599314
-4.511643053928956 2.440893505353782 38.996693499785046
-4.401308409582976 2.4639218577099107 39.99032117715963
-4.262999716413074 2.3175732678260106 40.969837790409564
-4.083875867362778 2.0537846294948117 41.91764061852772
-3.853365611792197 1.6974259890001004 42.82310930458017
-3.556713041820984 1.271558864272356 43.677880879216104
[...]
CELL_DATA 87
SCALARS quad_param_group int 1
LOOKUP_TABLE default
3
1
3
1
2
0
3
3
3
2
0
0
0
0
0
2
0
3
1
3
0
0
2
0
2
0
0
1
3
1
0
3
1
3
1
2
1
2
1
0
1
3
3
1
3
2
2
3
3
3
2
0
1
3
3
1
0
2
3
3
2
2
0
0
3
1
1
1
3
2
3
3
0
0
1
3
2
3
2
0
0
0
0
0
2
3
1
SCALARS single_component_feature float 1
LOOKUP_TABLE default
0.11746156381163272
8.079344339313302
-0.3096106656790546
2.3058547647164245
-3.770868798130905
-3.20596488697867
-0.007402879110110533
-1.4880267463504429
-2.335079099916101
-2.3805491279407933
-4.096943482205024
-0.3544267379594372
-2.1154083474293173
-1.210597990659117
-1.6128756811865606
-0.21374071487788682
-1.2766828318710932
0.03220139781716391
-1.6695952259214555
10.937545242171563
8.115897639954985
-0.7539204971589183
-0.5163347548590738
1.2333530281131244
4.095849988082542
1.8403053375577416
-0.6698376629965319
9.325362394337045
3.500078057354525
-3.145265150595727
1.6037966950733995
-1.7371709292194693
-3.2068525336459794
-4.549662618957739
-3.9627222739229326
1.703228156689806
0.47662994839487727
-1.511976315454395
-2.760637341823049
6.759272310344894
9.024842320309755
3.2483288089076905
2.5819415305223714
5.9039111324239855
4.743284415085153
-0.8429094238873098
-1.868903945704015
0.1446907720617165
-3.314815892388092
-2.35624397308354
0.03453029054263341
-2.8281232310971305
-3.460757281019374
-0.4955876466023558
-1.0192077572181981
-0.5511567959365287
0.7230695312467289
-0.19774848612190843
3.092609025482048
5.6697402975861735
1.417125563901513
0.12816038040314648
2.3480016926257092
4.076338828786069
-2.2392122893525768
-4.146953685619978
5.12765528087596
2.955991923802087
-0.2507523200727387
-0.8805460742281124
-1.5086727439202723
-3.5274930495387187
0.5217342358822064
1.4637771925854997
-2.5917652337759547
-3.652513406228603
-3.9724777643473628
-3.657557623267264
-4.999784088755181
-1.1015181528454743
-4.372655083077829
-5.826436565082194
-6.764591190841598
5.367075516126541
0.46448817031032585
-1.7785002501458766
-2.094440524192365
POINT_DATA 5568
SCALARS single_curvature float 1
LOOKUP_TABLE default
0.011083771960039648
0.02272428189634015
0.03764769154153257
0.05371329615516263
0.068200749396309
0.07863432634984464
0.08381327752208217
0.0821303153621579
0.07273742821438137
0.05748071089017544
0.03965187457297113
0.023485499602772533
0.01452588235192769
0.014907043426780533
0.02362555362626607
0.03778688085687986
0.052682660781613856
0.06525575668438258
0.0732398709806787
0.07561651204151434
0.07342009944854216
0.0674913917877149
0.060191145465135334
0.05243132025397101
0.04372904657911094
0.035130562825792806
0.028414227135086942
0.026139409127310435
0.0290117149326917
0.03870901501989821
0.049172046700398576
0.05509307021487257
0.05427353640595634
0.04262045154764856
0.02720147939228809
0.01826770714099246
0.022738635188022056
0.039693527038691265
0.07030355109813466
0.10410187994907016
0.11829488980320271
0.12240479601592498
0.11485492353602707
0.09110249446642824
0.0787199986903662
0.07724067865728343
0.08646393347757322
0.10844194391078173
0.12773304933940074
0.13279000344832878
0.12177986758918763
0.1007680520179832
0.08138742545210624
0.07357812771232525
0.07459964253821173
0.08175490900030367
0.08605112856368805
0.0823648425090858
0.07246197317538151
0.06159992040119879
0.04150633716093003
0.02141275392066127
0.0013191706803925077
-0.018774412559876254
0.17052241193516418
0.18855298901684306
0.11298665353458925
0.07008352997753976
0.04094949304028017
0.02536973421462458
0.01863676510177717
0.020179204336473633
0.0319564817888419
0.04909285554164918
0.06339846210343277
0.07249322244903318
0.07894180292241337
0.08243409022519795
0.0871112466228854
0.09367592244045315
0.09472794454693056
0.08347762474085456
0.06309221682820666
0.042378851185087156
0.031232555841490442
0.04010063331611548
0.06790291120105799
0.10280480790445319
0.12914434883138137
0.13635483265678525
0.12638603183687883
0.10338857435912978
0.07189246984521286
0.04353130581191242
0.027163073260821374
0.03199405670092814
0.0511658652572633
0.07523231738035384
0.09743513556227579
0.11516865528306418
0.14473658342932583
0.17489961935620504
0.18418168225941153
0.1723028561785868
0.1335667211520705
0.09358626227724186
0.07839062639056948
0.11337036771595832
0.16114678499364665
0.20228034399727138
0.23179826156956404
0.21195069663523927
0.18344772958575536
0.16479155092812212
0.15062679503866647
0.14149491742385412
0.13276231217684364
0.11444387397187804
0.08860469273244685
0.06780010228145628
0.04756555156952828
0.029298761608142168
0.01888081049203595
0.02579635251302085
0.022547309585316172
0.019298266657611494
0.016049223729906817
0.01280018080220214
0.009403506852289174
0.02124532236212724
0.03725322530517195
0.0564642136559405
0.07457826353756118
0.08788297567420562
0.09490239265542195
0.09389877792549527
0.08421413461634746
0.06803042302053511
0.04850937329957369
0.02971452063468377
0.0176703583700783
0.015118290489012684
0.021804866598817148
0.03551452073388309
0.05136151247357177
0.06607867528430156
0.07677784956830908
0.08177566958348752
0.08172847599147516
0.07714430327478997
0.07020259556217011
0.06152627173567955
0.05077336387741053
0.03950087890207986
0.030268513623986606
0.0265326187404586
0.02962541231674693
0.04125292336707392
0.05513136009080858
0.0647366546756888
0.06600695620954694
0.05394364995345608
0.0352363875644032
0.021726322500243388
0.022122577318863065
0.03729574390677451
0.07039442002784463
0.10890371293657258
0.12789512593533528
0.1362190515910994
0.1297291642974218
0.1036188376994057
0.08860969007898273
0.08424766268989825
0.09190321729075031
0.11493801973694902
0.13540134587475025
0.14044024143455172
0.12811142605795853
0.10501487695681816
0.08388041143942374
0.0759323286988909
0.07795065194340009
0.08648534882175646
0.09240377096363332
0.08978179356353391
0.08020858642670733
0.06929329747452177
0.04707686027781385
0.024860423081105934
0.0026439858843980146
-0.019572451312309905
0.034437219857099674
0.046538051166064104
0.04898458105542071
0.047655590090588174
0.044531414789164545
0.0419286844837083
0.039242762200099
0.03548571013408354
0.029328147141956622
0.020859621440326357
0.012405730477319224
0.008008086847823224
0.011347482447131074
0.02227608065073663
0.0377318214097233
0.05302611550385265
0.06372470408120548
0.06705750602671937
0.06347603247497355
0.05492933148899167
0.04454065998338406
0.03506935901664083
0.0291770153234284
0.02789914887886696
0.02878444504298222
0.02991734822824952
0.030685145606095914
0.0311917268498366
0.030324531821129236
0.03060515328165049
0.02758251042118032
0.021145081392843566
0.014715565121365525
0.00802620571240248
0.00692447636508349
0.015524053322543961
0.03612724731587305
0.059903013066563315
0.08119253888843904
0.09598317305576651
0.09099870260098623
0.07751489463324646
0.06499678659331161
0.051168226421544956
0.04848770109494586
0.058110711036479475
0.07427179539622666
0.09271606599443045
0.10781822116546817
0.11279588119210708
0.10581795358277526
0.09119123472475388
0.07719719967046634
0.06881208677722846
0.06491899797339379
0.06599720714129023
0.06355189337780211
0.055502476245583875
0.04442588267798172
0.03488773943021227
0.02263278367005652
0.010377827909900772
-0.0018771278502549768
-0.014132083610410726
0.02366534757778866
0.03898202714867638
0.04865503767735109
0.08803918521146724
0.13470521670667784
0.1731365248837844
0.19821556717080174
0.2059307451035039
0.19735685944498244
0.17725018377708063
0.145708519064049
0.10502675161031229
0.06538202461811629
0.03441991353955827
0.01962723531877992
0.025697185864305427
0.04552588372140576
0.07343772620732553
0.10318096992109965
0.1290363205513049
0.15093011910224016
0.1684688460109123
0.17898608066204294
0.17517817484070888
0.15249064846623664
0.11410226797040258
0.07264809981293668
0.04535533940800454
0.0433857119416393
0.07149338146831277
0.12353983750635815
0.17803628791614756
0.20601247071360454
0.19580390514494425
0.14596826673419927
0.082460289988675
0.039089176928277604
0.03219280407618968
0.0838809806169546
0.16525655534664901
0.23792502804614113
0.2966323367366057
0.3113392027240825
0.27263712321272165
0.2277263446852009
0.1825813658268335
0.16196194129206815
0.19083568111354735
0.22647994964206725
0.2373289009014052
0.21714544442053826
0.17103784652934342
0.12447802823228063
0.10903461257809238
0.11763702533889138
0.13807103446679195
0.1593467307044716
0.16563182788229003
0.15720162536134502
0.14483775905422785
0.10112748270065165
0.05741720634707545
0.013706929993499262
-0.030003346360076955
0.018877062864094362
0.03353484902640933
0.045655522114893855
0.08262233025681757
0.12508114829051556
0.15928296673295594
0.18085218955051405
0.18647934330504315
0.17722422462833348
0.15762833101154486
0.12830604788690134
0.0914395546928052
0.056394990222289255
0.0300668824892107
0.018727450811486135
0.026207433859297243
0.04589716321174726
0.0725193921101369
0.10004936426841107
0.1230820667418766
0.1411813591729661
0.15367777973048316
0.1591427273054433
0.1525148313747069
0.1307643689939078
0.09725232391628698
0.06252464793834699
0.04058014971721172
0.04031615710757189
0.06569180844613104
0.11022252756263652
0.15578177708550203
0.17884014063461093
0.1681703532823777
0.12419382914805034
0.0700483317040808
0.03439137070492984
0.031610140825881206
0.08101904110639647
0.15578904664370716
0.21804608501853878
0.2662568945485715
0.275248496000434
0.23679170842691083
0.19755329617572945
0.16183715937739268
0.1489002619532014
0.17832459889912036
0.21108096322963427
0.21959942312074754
0.19898878258851777
0.1561310493978649
0.1148105915811775
0.10167954870681256
0.10974100516751577
0.12845534719483295
0.14729916366250811
0.15252359120327122
0.14452671653213064
0.13297652585902459
0.09293919220415844
0.0529018585492923
0.01286452489442616
-0.02717280876043998
0.010502385175696918
0.022194320859548124
0.03748214646688415
0.05447634864408058
0.07001912006847337
0.0812831716853002
0.08699160762336654
0.08549923650064188
0.07600876782687882
0.0604635438102435
0.04212869107278868
0.025197962530536567
0.015354795474071295
0.014907477557998058
0.02306035108446084
0.03710422808850762
0.05228168807664229
0.06547861625317418
0.07424733075296594
0.07737684923368397
0.07578936351599723
0.0702267667781901
0.06300333716076244
0.05495675535006295
0.045655248557313816
0.03629760617356788
0.028880119131445788
0.02620964061704167
0.029164219779479965
0.039422762880604326
0.05085610411737957
0.05780855520727207
0.057562300978251484
0.04576962825158828
0.02939826628540331
0.019168944065274092
0.02248842588545125
0.038944160487934296
0.07027361693198202
0.10541906530043926
0.12097415220270961
0.1262816466486104
0.11902976044033944
0.0945965248550272
0.08147551543739044
0.07918824200890193
0.087970955819982
0.11024604660770367
0.1298618551245364
0.1349072463950383
0.12352339616078997
0.10193102394950952
0.08206553234562745
0.07422610800130251
0.07553752607237209
0.08308901666120909
0.08784764426129812
0.08446406786725323
0.07465378386730331
0.06377025199519547
0.04307537872791147
0.022380505460627476
0.0016856321933434795
-0.019009241073940517
0.00919627299490119
0.0219269507726668
0.038552704327903926
0.06586767673817219
0.09410513681042441
0.11568589969742016
0.12816907484461665
0.1294048268578894
0.11946309254290242
0.10151518138053299
0.0778821172056144
0.05178503190662357
0.03058410531314766
0.018777601678155894
0.0186346400408729
0.030348038702187875
0.04843848051279576
0.0688772723391893
0.08715685526148491
0.09977608638304425
0.10651578648159138
0.10709099066056942
0.10277884309655116
0.09281582383205172
0.07666208065811676
0.05705050938816467
0.03921711374471665
0.02987042552534287
0.03265400728505964
0.04974242976441012
0.0744734131826712
0.09649011082339223
0.10531705595432891
0.09313391205809543
0.06498423010940174
0.03679927381076042
0.02399555920726693
0.03301668637110412
0.07308263974348467
0.12587343886847818
0.16022615700464457
0.18214373960400335
0.17961059021977493
0.14701230920339758
0.1233129779602922
0.10897010377474149
0.11091275030067219
0.13712277034713347
0.161675840541826
0.16710034152474318
0.15079820561334198
0.12061268640129875
0.09316211201008637
0.0842153558443327
0.0889968919425782
0.10162278392615738
0.1125426354963435
0.11319400670304841
0.10463433140981007
0.09376983905437723
0.06486818987387383
0.03596654069337042
0.0070648915128670164
-0.02183675766763639
0.012750985863913182
0.026377174454955205
0.041466091772562004
0.07392627937070688
0.10935294583074949
0.13709862513322466
0.15384212142503464
0.15699770045170625
0.14721945320855337
0.12842083897946102
0.10208411047694327
0.07075388453624946
0.04273922111847282
0.02375637882829089
0.018073160878279978
0.027791440928268893
0.0469297834740971
0.07084169911514018
0.09411168064397012
0.11213377967684975
0.12436313438626502
0.1301492996038645
0.129649750700632
0.12039502055958794
0.10100340489344387
0.07472589742293836
0.049211991151575
0.03433401049942347
0.036018151140250206
0.0571609493532706
0.09105873955134001
0.1239399806415992
0.13949655752575746
0.12795811406782917
0.0923530434457136
0.05193998634914885
0.02817700335445692
0.03167056940408294
0.07666323442094504
0.14039696124293427
0.18775240084724992
0.22160136267428834
0.2236634610524137
0.18731082210913422
0.156272972469866
0.13257222527847326
0.1284894546625727
0.15680640719902655
0.18511500848688436
0.19148309914673187
0.17244147142612792
0.1360453200611549
0.10242935235327684
0.09193654311497938
0.09855064595642263
0.11424704700960468
0.12907752487702337
0.13213931171016194
0.12412547170910744
0.11317887474439597
0.07889443789002897
0.044610001035661956
0.010325564181294947
-0.023958872673072062
0.013017147140291022
0.0266956265782482
0.04166095490877491
0.07437757036131323
0.1101830931117935
0.1382632395626043
0.155245253284728
0.15851400114930034
0.1487521379018789
0.12991125544303572
0.1034272573740707
0.07181424895915603
0.04343313508404232
0.024063234035202365
0.018079508317067377
0.027682758143507225
0.046862136551266406
0.07093791898914352
0.09445450860001199
0.11275504382218011
0.12528800214186211
0.1313913068957754
0.13115015512474176
0.1219824816099589
0.1024411453807195
0.07579435662593073
0.04983268292024372
0.034620766520711145
0.03622397036825568
0.057586888920293566
0.09200989446568807
0.1255170711869499
0.14145553787044132
0.12996128120357747
0.09393760861260074
0.05283394306441776
0.02845954377554305
0.0316359173504349
0.07688024959967996
0.14120279643530095
0.18929968354279136
0.22384503883432255
0.2262105307270902
0.18969801842405906
0.15824663955853654
0.13398362876528452
0.12951494462776342
0.15792744257006888
0.1864572414233632
0.19290251909890296
0.1737347581010907
0.13698972419150326
0.1030011865661174
0.09239884602449035
0.09910236640853803
0.11496249275952446
0.1300055258944623
0.1331913041055912
0.12519500983962248
0.11423303516328469
0.07965065998891124
0.0450682848145378
0.010485909640164354
-0.02409646553420909
0.026547610151905543
0.04222053723950588
0.05037431760454583
0.09095151348563597
0.1398673940287132
0.1807413984068763
0.20802055413657153
0.2171832170367094
0.20918446842583832
0.18879744027971954
0.15584170252280113
0.11283983329044829
0.070508611162196
0.03693390139846159
0.020260294506508625
0.025560912089554754
0.045412420294009784
0.07391455891065045
0.10473711458999765
0.1320498537531663
0.15609940220061647
0.17678197442803514
0.19064989182956824
0.1888655551806821
0.1658376972903757
0.12455752681094061
0.07893482927291083
0.048285269547219366
0.0451848955926793
0.07484324127862578
0.13142321262184722
0.1913000929394037
0.2220663648860853
0.2120450620174827
0.15867204582378414
0.08960162478604243
0.04186980556080644
0.032667538021263744
0.08541521294593295
0.17032318474849278
0.2492505050960758
0.314439983260379
0.33278888984077387
0.29428668343112724
0.24590514972355276
0.19461122839096853
0.1687939685739467
0.19669954169908319
0.23386116742580434
0.2464488321018222
0.22722968578965275
0.1799578116558009
0.1305833590699122
0.11364433202142735
0.12237988278210413
0.1436702224955499
0.16623911253470272
0.17297468497260915
0.16411031344638066
0.15111118030733212
0.10535461854889544
0.059598056790458764
0.013841495032022089
-0.03191506672641459
0.009277513330615413
0.021144454870948955
0.03723941721126938
0.05677508321625401
0.07527213487877445
0.08888288055533256
0.09610012047762287
0.0951722146338228
0.08546377253218186
0.06919259387066495
0.04950051884931223
0.03042810301707831
0.018050750180566934
0.0151752385748203
0.021632990165457205
0.03528685795585962
0.05123102812856329
0.06617386908135034
0.07716204833496844
0.08244164670982507
0.08263048967801445
0.07820272142663476
0.07131490613798039
0.06255374317014475
0.05158627447845919
0.04002109078316005
0.030505701396467643
0.026598891016246243
0.02970476404744435
0.04153644110197416
0.0557890879890833
0.06580652003178142
0.06731713914588357
0.05522205613410818
0.03616661831697947
0.0221527400130877
0.022099018037047034
0.03707246436504533
0.07043441165853387
0.10945439076564606
0.12897238170790956
0.1377583210022374
0.1313872404508127
0.10502561434631728
0.08972419207296044
0.08503920292535026
0.09251877758454262
0.11567015518545436
0.13626651255361338
0.14130754464271092
0.1288346862355143
0.10550369678733973
0.08416951964450459
0.07620085365579254
0.0783245001248965
0.08700773825317097
0.09310292039361931
0.09059726519754069
0.08106069133663202
0.07014297661476371
0.04769334293195494
0.02524370924914618
0.0027940755663374145
-0.01965555811647135
0.011565434735462477
0.024943810883073163
0.04057391820354403
0.07176519483030822
0.10534862032444167
0.13148300926838646
0.14709027490416282
0.14971660804816356
0.13987157359919777
0.12128008376843498
0.09564791813616569
0.06567904341420522
0.03943453088177493
0.022322749175892803
0.01809200648515768
0.02835776851133447
0.04727652108453456
0.07036254702939929
0.09240695716947363
0.1090630072528285
0.11983510918130975
0.1241422878472847
0.12247393536346772
0.11287259048845721
0.0942422400761997
0.06973424248196
0.04633276309827602
0.03301448445717514
0.03505770630939789
0.055139894624586114
0.08654761048248905
0.11646422657831855
0.13020028749160698
0.11845797213345441
0.0848482717005874
0.0477255028263926
0.026889713799751525
0.03189045585145895
0.07564323063058867
0.13652666749311176
0.18036009364114294
0.21092580150398132
0.21160842432947446
0.17609611018579113
0.14703071504355367
0.1259557038071575
0.12363774848878613
0.15145787244790995
0.17872390575241248
0.18476325201833044
0.1663735995638565
0.1316515178970307
0.0997777072614221
0.08977320940683299
0.09593949217867896
0.1108407430569488
0.12464533434382626
0.1270970218361943
0.11897817264704516
0.10808644994721431
0.07523149783864475
0.04237654573007518
0.00952159362150562
-0.023333358487063943
0.008675514798750726
0.021155598828547475
0.03794099606189725
0.06343647359393939
0.08928974992168073
0.10888482491448066
0.12003497388402865
0.12070020940237892
0.11075926657507595
0.09314169094286791
0.07041563933099651
0.04603327493828503
0.027042927065015283
0.01752888264956952
0.019123307024638526
0.031401523397226315
0.049034516707857106
0.0681899445399444
0.08471500242791677
0.09552017243697586
0.1005596919774544
0.0997134742144491
0.0945334636993339
0.08467204768432042
0.06972534004463601
0.052188334368603095
0.03659683990312686
0.028783321912305714
0.03176386209602702
0.047548275521516636
0.0695306522459139
0.08833441173724059
0.0951646552546665
0.08288249258596116
0.057038878631586076
0.03256847311323676
0.02311702652920854
0.03375777226859924
0.07216833630734018
0.12145749511065361
0.15190517490683425
0.17033053941546897
0.16666819061207794
0.13553178770148294
0.11405655345280814
0.10235794429579671
0.10587874376466756
0.13133796194704472
0.15481605845866914
0.16007937620152488
0.14473418044926575
0.11639205914938727
0.09064366756147285
0.08203005760104108
0.08616914368807038
0.09780251849968456
0.10748583284208603
0.1073378527056097
0.0985429686249289
0.08765849201816169
0.06042657272015
0.033194653422138315
0.005962734124126637
-0.021269185173885055
0.009539503931153524
0.022390639286122564