# vtk DataFile Version 3.0
vtk output
ASCII
DATASET POLYDATA
POINTS 5568 float
0.0 0.0 0.0
0.12710463706741992 -0.07803773465505218 0.9888147062042851
0.25079601716652444 -0.15616584999558863 1.9780550410484092
0.3485495210798505 -0.22509865170477053 2.970875529012467
0.39912219837674534 -0.27428285506686545 3.9683840845901424
0.3917987749230939 -0.3031820212305336 4.967939588633796
0.316664993471223 -0.3137693682759254 5.965056845012043
0.16123591152492922 -0.3039987061305477 6.952855576863109
-0.07784676420123517 -0.27704892662778424 7.92348072775936
-0.4009378093794676 -0.23715910944787208 8.86900755393141
-0.7952124247172152 -0.18859248414907873 9.786716010145778
-1.2375794523532813 -0.13356187928341276 10.681860157972569
-1.7104536975722358 -0.07260522100830291 11.560879062217827
-2.2081517368215944 -0.009443166354665578 12.425926584946652
-2.721441332186471 0.048117436803751204 13.282209580371763
-3.2380405465161104 0.09624488395583009 14.13708325559204
-3.749238120986132 0.1300653255918243 14.995880797264997
-4.24239610098473 0.14500610411374137 15.865692259537632
-4.699990618225458 0.13878007996385983 16.754831446850005
-5.106125813472643 0.11083045064119351 17.66821691936545
-5.451605975646581 0.061908518011112953 18.60536690845578
-5.7316721433536655 -0.005555436733578986 19.562974112123374
-5.948767379759234 -0.08783961586340008 20.535650302946888
-6.10494174254341 -0.17709471948734282 21.519338818121298
-6.198203308891075 -0.26764840983996474 22.510853976556056
-6.226403113280949 -0.35205473302346235 23.5068862770559
-6.184651092032359 -0.41747899859364856 24.50386994502457
-6.065313237810951 -0.45057880796272987 25.49617175353323
-5.878628856594113 -0.4519391879659824 26.47859075333725
-5.6524457280549285 -0.43076988642894765 27.452445492524088
-5.407757785054742 -0.3908650937244368 28.42122586911599
-5.152108136903477 -0.3298756991063526 29.386069665356736
-4.896706550719616 -0.2414808095151739 30.348855401265265
-4.6673914014724724 -0.09459674583438948 31.31106101035429
-4.492789434023848 0.12187343862169767 32.27161023460291
-4.38958200306167 0.40962100585816763 33.223739198422244
-4.351775505422389 0.7607269677921257 34.15931136144906
-4.35631985196412 1.150219307245906 35.08032985552035
-4.375792020963742 1.5496813405409247 35.996872772458914
-4.386906422747388 1.9259990316392201 36.92329679278624
-4.359739335217322 2.2064080829665262 37.88279286536228
-4.271051580680732 2.3701949971682947 38.86529392334213
-4.113141700701972 2.394442219104041 39.85244970741751
-3.8883150521068153 2.2471915409804923 40.81565800050558
-3.603012392814367 1.9771248121389537 41.73525919372658
-3.2775444854740314 1.603735399263416 42.60396569631762
-2.914080482447708 1.1491547269153646 43.417138698102406
-2.5025626463203023 0.6770804939121705 44.19675333950126
-2.0419661016993467 0.21840029612569536 44.95666339947007
-1.520073726304379 -0.20401098073719734 45.697741709558585
-0.9099426619714799 -0.5372041133070481 46.416575779942214
-0.22414874169954624 -0.720289746082633 47.120966545064256
0.4823306592325627 -0.7334103220245615 47.82857851962769
1.167828006629425 -0.6077800815759231 48.545732916809136
1.8199127048748671 -0.3726882144537751 49.26650844381264
2.448678681192504 -0.06317402887354104 49.97984869639196
3.0714635295202215 0.29979155272356983 50.672954041393204
3.701890164370344 0.7156523115424732 51.32840967478582
4.342559294084326 1.1898195050515612 51.93232071031278
4.991642218398089 1.727198234652819 52.470758690340595
5.649222633495815 2.3198455205583977 52.93590081076042
6.308383310621767 2.95789169565496 53.333901162739544
6.9554391132551645 3.6342024980329715 53.6859274215119
7.576851253134388 4.347935636488692 54.009086762210686
0.0 0.0 0.0
0.13216607170607148 -0.043258114895185364 0.9902832246309639
0.2633603986744082 -0.08775981104474159 1.9806405579259407
0.3792889932673831 -0.1304509160009629 2.9729802328927915
0.46204317588692456 -0.1642264312595468 3.968977702682745
0.49602173391343485 -0.18274279302536453 4.968228723168288
0.46734132544289164 -0.18239567856522812 5.96781729537263
0.36096585907279355 -0.1606585481668709 6.961905700554276
0.16865023162765413 -0.11936440419640132 7.942369617847579
-0.11026533587423938 -0.061714265643985904 8.90095324368832
-0.46634070880245976 0.010755582276679325 9.832596120512045
-0.8821068496427361 0.09740414143702569 10.737930613020875
-1.337826368007775 0.1948758688399836 11.62270119511446
-1.8187641178633231 0.29641597454102836 12.493556227653231
-2.312165351765426 0.39486146320351495 13.357768995521125
-2.8082478670946585 0.4866532859518917 14.221178747180875
-3.2994907845293975 0.5660327255902847 15.088576753077188
-3.7731035997267792 0.6267524929506758 15.967214341126159
-4.212075937028204 0.6648555280285229 16.864906630166217
-4.600676384537519 0.6762373835791562 17.786242695649268
-4.928330803732245 0.6578872242789876 18.730862118081298
-5.187770236086945 0.6099072537996562 19.69542891378405
-5.37802230772635 0.5358616951120567 20.674367831426796
-5.501222386849675 0.4442129821119754 21.662508638148914
-5.559773954568761 0.34332930025559283 22.655682437970846
-5.558107660890184 0.2427468859979508 23.65060977270815
-5.499802804224815 0.15274039640427098 24.644842831663773
-5.391002993369876 0.08150709078841975 25.636350984594937
-5.245251051827907 0.02942047541436059 26.624300050101667
-5.077887870491588 -0.006219515077791782 27.60955096058625
-4.898227015061553 -0.02276563143224604 28.593140409014676
-4.710393016135126 -0.011887585476541347 29.57528095749208
-4.522745904607044 0.03589685561637655 30.556354455617782
-4.350724547229692 0.14306732618757018 31.535600667172158
-4.207133198775662 0.3151472256938851 32.51016212384641
-4.096787692306779 0.5462788825124026 33.47680684990581
-4.013892033651367 0.8213788085911631 34.434642086492744
-3.9445371806624006 1.1153530622324699 35.38793587256444
-3.8789431512073964 1.4088849823102378 36.34163206905225
-3.810335010320869 1.682373662082048 37.30105734756057
-3.7245619146608093 1.8916069642654545 38.27515405801509
-3.608779029115715 2.0136943021287137 39.26089692780838
-3.457714170994661 2.0100219163931583 40.24941395964136
-3.2670792115808576 1.849914677264722 41.21793034268708
-3.0308466187041443 1.5822913056815646 42.152045909972635
-2.749576698671252 1.229254718408338 43.04437566972021
-2.4151774133771102 0.8105419516374742 43.888684106808135
-2.0299039026245405 0.37972485784581467 44.704748414083795
-1.5905583834138413 -0.03837349419096784 45.499839152788255
-1.0792883810766443 -0.41771446832671083 46.271009309142784
-0.4791400111214028 -0.7047388940993263 47.01762762732817
0.18312584349459227 -0.8501703817781698 47.75264709659498
0.8580096372249642 -0.8454897211256764 48.49055627554314
1.515738647770929 -0.7215242336456066 49.233540196365155
2.1522615556126277 -0.5052880671485434 49.97386479280337
2.7776111920368947 -0.22383031105494874 50.70168301444858
3.4048192402645148 0.11270399901798225 51.40407515733048
4.042852022949887 0.5105770986734459 52.0633256141292
4.691886062122053 0.9743536860831921 52.6663729530392
5.346443760013169 1.5046985850633972 53.205157240353856
6.00045152214164 2.0921803197883158 53.68174832130304
6.646985253165897 2.726204007628555 54.106021933380575
7.27546545405826 3.398677726356147 54.49690776672195
7.873572871985391 4.107410228307799 54.8710277438655
0.0 0.0 0.0
0.14380193177157913 0.03348643686663654 0.9890397681411698
0.29338894313976455 0.055666506156016475 1.9775395256303927
0.4388226550422106 0.06857761060599502 2.966823276039828
0.5710533772287167 0.07622966778887555 3.9580127040155832
0.6713676774540036 0.08993399559729559 4.952874117766077
0.7186977878273928 0.12361239483398695 5.951185505098154
0.691799308115403 0.1810040760204963 6.949174817024776
0.5705424365703038 0.2635622219141482 7.938356763710873
0.3556308203334453 0.3702976224254543 8.909140236728494
0.04898585135784589 0.5071908682177346 9.851068632233378
-0.34682371726477723 0.6817511049249845 10.752658067146788
-0.8076197864924202 0.8842680198766186 11.616749429065669
-1.2946414637344779 1.0968586639536084 12.463871087357596
-1.7887627218952697 1.3109741813753353 13.3064853095452
-2.2843781385238873 1.5228920087045597 14.148777535117835
-2.776503157572103 1.7265654403000135 14.99514039990393
-3.252588754808795 1.9113298327823676 15.854910499043466
-3.6975817646729863 2.0694067465651163 16.73638251249649
-4.096392077365226 2.188581015287768 17.645639257406717
-4.433906005772097 2.2549158120716757 18.584619578215946
-4.694441595520616 2.260443842982421 19.550067995972505
-4.866441079053512 2.206541555595885 20.5336892244334
-4.950527132834729 2.1035116515725356 21.52480696437979
-4.961125992520235 1.970569256670194 22.515874057875983
-4.918804862721712 1.8256353850784517 23.504409891742416
-4.842510669584176 1.677310291404097 24.49040120137957
-4.751798297572727 1.53123819040398 25.47550739203795
-4.656943012284021 1.3913270398809334 26.46111753038481
-4.560151246809783 1.2617748133076028 27.447954687531965
-4.461061518964203 1.1568086446392856 28.437481508426973
-4.361375580885234 1.1019955579880978 29.430989555340076
-4.262926707598311 1.111843474369351 30.426082936833232
-4.160320092364407 1.1957759763096778 31.417257602383298
-4.036995739393666 1.361836337035797 32.39563128383627
-3.8822457967686406 1.5907331081950398 33.35670293746592
-3.710437682523357 1.8465995098403802 34.30802536250832
-3.5331400537404103 2.108935482959543 35.25657445877881
-3.3572131942050305 2.362082611437816 36.20787161079663
-3.189251385242551 2.5976478964149803 37.16510607906638
-3.027367319792711 2.810572665271426 38.12867060319586
-2.873296087610132 2.965822597840156 39.10445721606321
-2.736463607217159 2.967492690933495 40.09505000984811
-2.6085477679711473 2.7738218467346725 41.06774170929727
-2.457500048780014 2.457157979560084 42.00417568014262
-2.236992127812557 2.0539095032717793 42.89230119107099
-1.8999679413761084 1.6041874972467751 43.7194437513674
-1.4829153822512864 1.157130693273317 44.51077641020847
[...]
CELL_DATA 87
SCALARS quad_param_group int 1
LOOKUP_TABLE default
3
1
3
1
2
0
3
3
3
2
0
0
0
0
0
2
0
3
1
3
0
0
2
0
2
0
0
1
3
1
0
3
1
3
1
2
1
2
1
0
1
3
3
1
3
2
2
3
3
3
2
0
1
3
3
1
0
2
3
3
2
2
0
0
3
1
1
1
3
2
3
3
0
0
1
3
2
3
2
0
0
0
0
0
2
3
1
SCALARS single_component_feature float 1
LOOKUP_TABLE default
-0.6257690397561161
-0.20346794929784373
0.7927391196656709
0.1275000302301283
-0.620098506978928
-0.7880011399619271
-0.32845559002422053
-0.9556745813593801
-0.40797337501093583
-0.03261247847796922
0.898419756403726
0.207357764758357
-0.057610464451816557
0.7770855569929023
0.8216203941244298
-0.5503117783809053
-0.0034764653222755515
-0.004266951098114133
0.2741864681222189
0.054117372999404
-0.050233194769348954
0.7949611659973347
-0.25084247308047825
0.3072517781756781
0.6394463144649403
-0.2182278248073073
-0.7992648920156178
0.6097964405206693
-0.393756413078968
0.7581931330714771
-0.017497850484129385
-0.5989172939878835
-0.5494303330285037
-0.48122561037594525
0.1555772613596082
0.14937216082776483
0.1710237208703376
0.29465732477147083
1.0305600567811795
0.21590296879529453
0.3687528563831585
-0.13455192136138694
-0.777063957424245
-0.46868704758755053
0.26619766507263143
0.522228168176039
0.21970062562686865
-0.9306467750907084
-0.29426180348688397
0.44085068082255147
-0.5901365435070992
0.09879028867459827
0.04271744716170808
0.29916169444898594
-0.12962044789054605
1.359085651131655
0.33418511953596797
0.17723060404111163
-0.770497827612278
-0.03100218361315958
0.3260775352160741
0.47995558086407497
-0.07443074218379814
-0.9493851414031808
0.11259877698679706
0.024065395657161738
-0.018801556081371157
-0.06183366138390749
0.046766533965336324
-0.8172887704886248
-0.1879784760904472
0.3529908018418776
0.1649022310450836
0.9157954224310993
0.43996677292059416
-0.30039208689367425
0.39781336330256245
-0.45348871298338
0.14442497394194242
-0.21844735986821273
-0.10335284746705609
-0.8155872237051645
-0.5257123398882244
-1.2360359392368157
0.7413432192209926
0.43262361772201074
0.0383237558728539
POINT_DATA 5568
SCALARS single_curvature float 1
LOOKUP_TABLE default
0.020630662206705157
0.03595611234506617
0.0526223120430873
0.06645715069118535
0.07533267148803455
0.08208753517558716
0.08373165452872777
0.07633176385366242
0.0633904656022443
0.048444541294586314
0.03393986369651602
0.02309884382234019
0.018296189973364914
0.018238641479857137
0.024966177686720034
0.03764565334921722
0.05077207996354846
0.0613934210652366
0.06655268765893646
0.0669024297651038
0.06565350555746907
0.0642880426849208
0.06579502592108866
0.07122855819184108
0.07413111246614765
0.06935263113640246
0.05799280934743851
0.04302638734302775
0.031150418019714635
0.03558375899129066
0.05096287935068146
0.07014652560117665
0.08628946780761769
0.08503476019559161
0.06764990178992009
0.049066277844522194
0.05301135676228799
0.07158574459928
0.10552954022626669
0.14448709669401943
0.15305097210218901
0.15017046785875576
0.13791569165903836
0.10745815243922996
0.08547346845349306
0.07351642252088136
0.07895385737199555
0.10546944755564276
0.1340721841234779
0.15040556341559874
0.14726100768230413
0.12522059634379518
0.09727800505560695
0.07868243278655954
0.0697611676473894
0.07299880957779549
0.0816097048876627
0.08549718731865864
0.08116865674706544
0.07183646811740582
0.04889824644663857
0.025960024775871324
0.0030218031051040817
-0.019916418565663174
0.012904310210854883
0.025697730675790315
0.04163497955923199
0.05789617542549066
0.07147760568983472
0.08129971692855062
0.08566564068426832
0.08219277172598914
0.07153427106038031
0.05619061670304839
0.03909710752490958
0.02423757807489063
0.016165585745908522
0.015899500762332784
0.023665890586315276
0.0372731558323734
0.05168060972672524
0.06387027657624379
0.07126867162899737
0.07330562474751232
0.07176674771459479
0.06760535896266856
0.06320745669699901
0.05923032599368851
0.05332347585194344
0.0451114621113759
0.03641920409316617
0.030108419424550777
0.028898281191886532
0.037418041703097656
0.04944561424003593
0.05930093076847731
0.06319688952336391
0.053794672456464326
0.0370386085653971
0.025268479556407153
0.029142986277381537
0.04640131613014483
0.0779157991599215
0.11284064566701278
0.12601307987464036
0.12902986437167321
0.12083246076432214
0.09547146316041068
0.0800485482726394
0.07507547583531228
0.08330948939151343
0.1068879249539389
0.12929300277818154
0.13797126350429553
0.12923195936992435
0.10771860701749668
0.08553407693290252
0.0744343013237474
0.07259922738391497
0.07888449490896675
0.08477438763453458
0.08344972235072531
0.07519745508909002
0.0646433132119087
0.043610590498848446
0.022577867785788186
0.0015451450727279187
-0.019487577640332335
0.009309070444205859
0.017479484429405976
0.02847222101724954
0.045368455287785894
0.06620180175287613
0.08252374790676639
0.09342565714435545
0.10007615238469396
0.0956362867913893
0.07938129714982509
0.05646158919759319
0.031001178167495484
0.013467949955423282
0.012310262993148236
0.021759546870797775
0.03768418969389783
0.056715757988741365
0.07495808570048403
0.0902668631643908
0.09879629334839625
0.09709926608571687
0.08540416232741302
0.06706674276814222
0.04557617629675964
0.027641231083468974
0.016723926773766423
0.014375940366248558
0.023292439272607175
0.03758319877623189
0.05346085418615718
0.06859065371837454
0.0740651047667936
0.0662797807681998
0.05000362718086869
0.03106146091173162
0.018040773765690053
0.015770691936668392
0.0283939651295867
0.06458536245495894
0.10805682494490321
0.13410246555135003
0.1491424250796138
0.14531650079725458
0.11884267978945755
0.11082517793435866
0.11401729351433415
0.11732943554061696
0.13295862028883274
0.14117790848258954
0.13157880468161248
0.11076106702609058
0.08876287733336845
0.07780840808435444
0.08271282130169796
0.09601486603421473
0.10697311683718135
0.10677559286126061
0.0962185813529998
0.08077731648527013
0.06915176546562879
0.047700211480867394
0.026248657496105998
0.0047971035113446026
-0.016654450473416793
0.009488183625587709
0.020526587854527996
0.03527869625822613
0.0524934997674866
0.06904782175131464
0.08111304043232101
0.0876141845156782
0.08736790120785493
0.07864115505436284
0.06299665857775238
0.043941111125416016
0.02575450721915519
0.014836689947007337
0.014344981242426058
0.02277256361642439
0.03710606064866991
0.05278752024688934
0.06662544104488131
0.07625399987646704
0.08006878945543988
0.07840695225360256
0.07190314802173568
0.06290331214714583
0.052481303423779956
0.041377253181078294
0.03153411693824924
0.024983358561540936
0.024471072176134513
0.029735184134023148
0.04096413538654555
0.052254817487233825
0.05780533982180903
0.055418739073538295
0.04245951840819905
0.02613182783055746
0.016511860865322907
0.019429935929704923
0.035428170242460956
0.06705944552537497
0.10273321380236518
0.1197048681908504
0.12628965357432406
0.11945305096745831
0.09528124290605405
0.08346109360040005
0.08273409354561707
0.09161497369843938
0.11304044808002421
0.1308876231664088
0.13362150558824476
0.12061005519062652
0.0989413484580971
0.08048750976950057
0.07464529319775337
0.0778697927776906
0.08612435044634947
0.09014861606824223
0.0855266059113759
0.07476932570658906
0.06370505879329369
0.04310829692885379
0.02251153506441389
0.0019147731999739903
-0.01868198866446591
0.020501627052747492
0.035791150794903526
0.05245390829977562
0.0663308645718159
0.07527652898332747
0.08207432194134945
0.08375498898488432
0.07640614479907229
0.0634939577322666
0.04854251322124753
0.03400246593105209
0.02310928199373028
0.018265413838859088
0.01820556987503355
0.024948579674077126
0.03764071809023057
0.050781922387241545
0.0614202627770697
0.06660485166033463
0.06697273708834262
0.06571888156899866
0.06431737151342484
0.065744928266091
0.071042943629567
0.07380967734316765
0.06897359149238186
0.05764832388097986
0.04280740150726715
0.031094074545391915
0.035588207427526435
0.05090470510288792
0.06993546507895235
0.08587974059349518
0.08447631827358952
0.06707813408383526
0.048623290841331004
0.05257760615587493
0.07113920532487668
0.10503870458276085
0.143887563577575
0.15250795233092818
0.14972611957755083
0.13755799739559552
0.10720540246257908
0.08532864367294785
0.07347852873144288
0.07896808207030073
0.10544148028947702
0.13395551933235897
0.15018239598577451
0.1469595778550863
0.12493249884885954
0.0970775901006286
0.07859226440877462
0.06977451134727852
0.07305873604542769
0.08162932874272193
0.08543611194775985
0.08104542795085964
0.07168824573280784
0.04878574091460761
0.025883236096407386
0.002980731278207152
-0.019921773539993068
0.024613876540261936
0.040987054823181227
0.05767385867166263
0.07019165067112254
0.07698142509449747
0.08248808202683065
0.083088359669645
0.07425168897842868
0.060497766378001736
0.045711393264433874
0.03222275164288436
0.022849731279557126
0.01919321436609558
0.019196155034776088
0.0254641419452491
0.03777830331816899
0.05050914149397592
0.06069166631663659
0.06518297756133197
0.06506674718168108
0.06397043368527096
0.06361725778339526
0.06739522321827754
0.07681114197134789
0.08381143797594
0.0808252971844436
0.06849891943787076
0.04983923436513104
0.03307537261865907
0.03569214587064468
0.05306306009474744
0.07692312117448052
0.09915107777580749
0.10272068992027196
0.08621949205473504
0.06339271700385404
0.06685415500631431
0.08570795539300917
0.12105893279275427
0.1640780673860963
0.17126105482865542
0.16526346419499743
0.1499267737604469
0.11587387860859819
0.09049042509024802
0.07529854185398815
0.0790610550758154
0.1068226399642776
0.13805277829209908
0.15750784585070088
0.15666039518702146
0.13415487784390714
0.10355261417615083
0.08165485875123389
0.06963983055816017
0.07146021423875597
0.08127404998612801
0.08761954288363201
0.08521459472753919
0.07674318430141525
0.05266734917056374
0.028591514039712232
0.004515678908860732
-0.019560156221990782
0.014794110226210236
0.02830508155752926
0.04455469373593589
0.06024545307527061
0.07254346434321919
0.08148463216962383
0.08504566094586373
0.080386469805321
0.06902958972954099
0.05380085386755944
0.037462742553873864
0.023818930855035364
0.016755932148455978
0.016559991216291776
0.0240430348137643
0.03737828395596742
0.05136799627228389
0.06303031413154206
0.06969282803250222
0.07116037171001617
0.06969080099216621
0.06637938323198785
0.06372536357022178
0.06239025096784129
0.0588226484514385
0.05145484841053809
0.041958395394544004
0.03323349301032747
0.02916343711681098
0.03655951823707072
0.04930011176455104
0.06147465570245443
0.06847060405106145
0.06094460916369388
0.04380943236153261
0.03054872974863288
0.03457822779161507
0.05228539298957012
0.08430950865067856
0.11972091279503849
0.1314976212979547
0.13301653273035496
0.12400859288835843
0.09763108833042637
0.08053537522472501
0.07368848824601026
0.08131746132872146
0.10572786793749255
0.1298976901219366
0.14080355216380244
0.13368467533493192
0.11210765398299205
0.08836282882664007
0.07517182863783574
0.07134776283717861
0.0768081747771193
0.08344989882802108
0.0835181570188876
0.07630358193380182
0.06600611063974236
0.04456912076015087
0.023132130880559376
0.0016951410009678897
-0.01974184887862361
0.029319407172647072
0.046812504374399364
0.06335726373923871
0.07428544040920605
0.07876224143030335
0.08293941832133016
0.08246748402026872
0.07219967958932837
0.057650426595764706
0.043031363698864795
0.030596834155061186
0.02268639401938682
0.020144284454239145
0.02019985994198249
0.025959951084857893
0.037889334776135625
0.05026497972040171
0.060090441762994655
0.0640076531930383
0.06351873902678826
0.06260325410550623
0.06325575923935274
0.06937377749503026
0.08311657157984355
0.09478963611583904
0.09395796312329568
0.08068490802091233
0.05800737367452967
0.035708307593949336
0.03628550391102825
0.05611653117910109
0.08539051232016223
0.11469239961083638
0.12448851057361392
0.11023862791082138
0.08165152198450265
0.0838112062578506
0.10268917757407146
0.13995843400339084
0.18974203701967984
0.1964978570250803
0.18672222697724197
0.16654031534095243
0.12722158506712922
0.097544649651807
0.07861787927593991
0.08024783676016758
0.1093817609255972
0.1435454366288298
0.16642047597968873
0.16809339549785837
0.14491790486720596
0.11121543282413583
0.08555371883685149
0.07002602463640788
0.07018391489301717
0.08134651021557494
0.0905615542246692
0.09047844741513424
0.08324692099932045
0.057762653575089744
0.03227838615085904
0.006794118726628343
-0.01869014869760237
0.016169791266693344
0.030151723388079827
0.04655880140997519
0.06182294824348267
0.07325673820653782
0.08162599457529462
0.08467454316772749
0.0792704182038578
0.06747871214318624
0.052324224790275355
0.036471688259211404
0.023590244930483728
0.017151239756612993
0.016996070891358343
0.024288323459285936
0.03744966310952293
0.05119068526276627
0.06254491775080709
0.06877077592496902
0.06990636285988693
0.0684881198350743
0.06570791515118597
0.0641654518167453
0.06457349710688204
0.06260881443521436
0.05585039361181795
0.04584702884277285
0.03552120187109435
0.029504756875419095
0.03615093517960675
0.04946779612755411
0.06331297144933587
0.07250539289873009
0.06638041765381734
0.04904263058193121
0.034619827016665834
0.03869374431605594
0.05666619490029306
0.08911790236769805
0.12510743408109348
0.13599971542799363
0.13647696683336094
0.12681534038134237
0.0995985928072337
0.08133286369393376
0.07321329598767483
0.08036123634419137
0.1053151335793053
0.1306329158258033
0.14296619169766925
0.1368893571375455
0.11523317986683108
0.09043864939268738
0.07586899697937985
0.07073957159314562
0.0756451429499063
0.08278650444850831
0.08380013479309079
0.07729153204996211
0.0671938618052143
0.045429731453248856
0.023665601101283407
0.0019014707493179572
-0.019862659602647492
0.010856238306890191
0.022716531615062967
0.03810411199720604
0.05495488505412126
0.07014611921406831
0.0811406134964798
0.08660707530598082
0.08478450713079703
0.07510844714538467
0.05960952771763584
0.041497346552903255
0.024940836365236314
0.015432469549688061
0.015057548618497972
0.02318035894150107
0.03715996911085126
0.052193708034288515
0.06518875989691889
0.07368829131787775
0.07659509407228195
0.07498256300829369
0.06962927095483194
0.06285387594074879
0.055453502835619436
0.04668994441724742
0.03753263099219198
0.029946306914524535
0.026734432792228566
0.02905735313955769
0.03901834398444803
0.050455432583255945
0.05775286365520588
0.058071988073921645
0.04662266198399579
0.030270557859224733
0.01992412986787308
0.023411580645624045
0.04002250635400512
0.0712835909871413
0.10625504991586532
0.12135439066581709
0.12624426450020995
0.1188495474964408
0.09435437423384051
0.0809307242247487
0.07828001008100234
0.08703321725170445
0.10950135866010414
0.12954490723434572
0.13517643038881813
0.12423562824753806
0.10269698423037334
0.08249778869536768
0.0741458631084461
0.07494422331856904
0.08228010052406134
0.08719306322841026
0.08411169367001362
0.07453959684005221
0.06370543076035466
0.043009963688988205
0.02231449661762175
0.001619029546255292
-0.019076437525111165
0.010088015395616167
0.01788080055430305
0.02812017345527523
0.04469059722453685
0.06601226335760026
0.08299340992722282
0.094619273716914
0.10242622147906644
0.09872825273959346
0.0823772071421861
0.058844315300627864
0.032137981306254934
0.013424961541856208
0.012131085961794673
0.02171293770026837
0.037917980426560076
0.05758290482669496
0.07666007922535902
0.09302092222763556
0.10243962837414503
0.10075587703813818
0.08816192582272721
0.06830208284237747
0.04517491557604881
0.026468494536651663
0.015619949914948658
0.013917809487661272
0.024137940793618563
0.03949105068618989
0.05601882557631007
0.07246874762648528
0.07909108742271742
0.07125343808595234
0.05480532629637475
0.03503648371028327
0.020445324103889533
0.01688368348432744
0.028738592433929386
0.06568586283410993
0.11075732074891098
0.1383855050017903
0.1551774026471976
0.15233518591136502
0.12512392095417424
0.1170561223494701
0.11975676640874022
0.12081950599439392
0.13517787184410487
0.14191840238177425
0.13062528326509612
0.10899180997919099
0.08722563261599589
0.07766065725678149
0.08433318899573278
0.0991359781703084
0.1102117917718892
0.10920338338991134
0.0978278965677267
0.08179804693000552
0.07026343650597665
0.048673283851281
0.027083131196585356
0.005492978541889709
-0.016097174112805937
0.009001115350227492
0.019648922968726786
0.03404297451892682
0.05137430511908773
0.06855778651927165
0.08114849254576482
0.08816787275695545
0.08871884835722396
0.08047630568814573
0.06475889191709663
0.04523593590982428
0.02622080981338379
0.01457574005206969
0.014020034971908655
0.0225899934248765
0.0371029058435326
0.053130009195602984
0.06741998733307134
0.07764625251519586
0.08194691664825819
0.08026706267523576
0.07317652311873285
0.06306696828607335
0.05120044300478224
0.039043693608045375
0.02892549238110826
0.022889145538080243
0.023652883812870534
0.030258640136580736
0.0420948716274448
0.05346169201600657
0.058380122770158964
0.05486341660516842
0.04126500052264524
0.02481593901808398
0.015342975209284156
0.017892655374633956
0.03358704460767682
0.06560547336894955
0.10184964409820672
0.11979790095480354
0.12724267747638662
0.12065048204326778
0.09647837549095456
0.08536552098608638
0.08549984505934975
0.09429441009883306
0.11518635940959523
0.13193276963266554
0.1331962701948384
0.119146880344663
0.097381266500396
0.07977097599449766
0.07517361755645943
0.07960703583601184
0.08829732271198727
0.09187688584657659
0.08650891278882998
0.07516499588630872
0.0639891687034441
0.04336903063171475
0.022748892559985412
0.002128754488256071
-0.01849138358347327
0.011117622026460503
0.023110872271972588
0.03858738999698582
0.05536516725706926
0.07033105328956622
0.08115608367122962
0.08646138281390273
0.08439532575864821
0.07457356568964081
0.059097327828364084
0.04113332210175314
0.024827743654352172
0.015533783819900684
0.01517577102384168
0.023248533086092184
0.03717343690316981
0.052111427917473405
0.06498256647238641
0.07331424753325608
0.07608732623302272
0.07448415431602483
0.06930749144766428
0.06287958701951457
0.05596688109767548
0.047597534003302674
0.03856426906787474
0.030816011344448658
0.02716505036174218
0.028997199377851827
0.03875345290505652
0.05024906711405009
0.05787627879704062
0.058672998792614214
0.04749173470808012
0.031100399559050296
0.020588147807205297
0.024145686370116465
0.04085242182374346
0.07211124724052052
0.10702884659489087
0.1218433092816476
0.1264666065235037
0.11897102579066364
0.0943841001314493
0.08068712706663206
0.07771370174110918
0.08641426539383262
0.10904403906840039
0.129430932722437
0.13551007675939977
0.1248913959082255
0.1033641337199805
0.08288352922833049
0.07413549475820674
0.07455272512754096
0.08173971861671922
0.086792926327409
0.0839599271178083
0.07457601021969049
0.06377961287051809
0.043050094026312824
0.02232057518210756
0.0015910563379022968
-0.019138462506302967
0.009212431276116621
0.017440528575579244
0.028541316741054028
0.04547929756202706
0.0662360293790958
0.08246010211927872
0.09325551899373946
0.09973631505443503
0.09518816020050143
0.07894746221731387
0.05611848714125248
0.03084021988712907
0.013478462317452988
0.012340185736863534
0.021769224806205193
0.0376531511105751
0.05659334271616579
0.07471524175904515
0.08987179226497581
0.09827280196920878
0.09657410108519461
0.08501012480840989
0.06689681928683408
0.045649331943058216
0.027834306041796313
0.01691215729754411
0.014467912409506048
0.0231883052999528
0.037314194196894156
0.05309315074685706
0.06804482560992012
0.07337796509172281
0.06561900046375733
0.04937258232240019
0.03054327616266545
0.017729835657803887
0.015640062677293325
0.028374202354958595
0.06444722444091425
0.10768394971757349
0.13349668898748882
0.1482895524518474
0.14433559168342355
0.1179631422474358
0.10993074021479796
0.11315855505997412
0.11676682660059551
0.13257854494768168
0.14102520811436384
0.13169179443059562
0.11100968312609204
0.08898612375836716
0.07783071565274748
0.08247280460329609
0.09554714142450367
0.10647849694821072
0.10639827607819725
0.09596794476711565