# vtk DataFile Version 3.0
vtk output
ASCII
DATASET POLYDATA
POINTS 5568 float
0.0 0.0 0.0
0.1304045068780599 0.03218369734450841 0.9909383806327855
0.2613852384252673 0.0638394343992067 1.9818177689918746
0.3898774510320202 0.09466517615447184 2.9730490865684827
0.5027716811804246 0.12603377309347402 3.9661608143842795
0.578184951094868 0.16007347245508646 4.962732004810825
0.6032557126418215 0.19851508089445674 5.961678299491401
0.5572304897575772 0.24152329740178785 6.959692313506893
0.4178409077390003 0.28621138884111147 7.94892106304271
0.16996194943000362 0.3310748882083634 8.91667272976934
-0.18230539941193294 0.37849255259741277 9.851370156771127
-0.6158570098529222 0.43167725067738955 10.750928042053761
-1.0996691806968095 0.4926018313374705 11.623976711266835
-1.6062298939609219 0.5563027142922686 12.48382462880117
-2.125172622367847 0.6160809866217176 13.336540878670306
-2.6499365790852853 0.6663583146914862 14.186302598220218
-3.1734454956333176 0.7018914396973783 15.037581525083805
-3.684662428639983 0.7178606390777345 15.89688486621452
-4.166554274721055 0.7112698959102342 16.77309078424126
-4.60241948731878 0.680309777307267 17.672570071108517
-4.973803172337443 0.6255547120672019 18.599433621655475
-5.260429643267613 0.5525395669946818 19.554689636947792
-5.45509859966826 0.4685131280192414 20.531952935638063
-5.559677448334526 0.3834447137632135 21.522824586916677
-5.585808548093723 0.3056324765521586 22.5194501040321
-5.548712483514058 0.24005327813524557 23.516607689736432
-5.459568586748154 0.18644446818860294 24.511182705089972
-5.336416162212582 0.1447213008846482 25.502692996333153
-5.196889822444244 0.11602000339648866 26.49249531802842
-5.05092762658654 0.10135720079194538 27.481676817855515
-4.908570173619026 0.10754076559591325 28.47147281659006
-4.775131893768532 0.14938523878522475 29.4616461678443
-4.6561879386743215 0.2452945706942466 30.449904097536397
-4.544620626761798 0.4156179398666355 31.42895602916535
-4.428523229051609 0.649513761896369 32.39426123410416
-4.310651287430342 0.9206316455323147 33.34956291344488
-4.194028693010185 1.2059730018302033 34.30086700828353
-4.07689283143365 1.4925270954875696 35.25174341525813
-3.9552408433837263 1.764237431812186 36.206402667000795
-3.828480696317974 1.97604737963492 37.17545808910997
-3.691096796066445 2.107144716213208 38.15726211858518
-3.537456084192347 2.14971368827447 39.14447152609327
-3.3812114929751815 2.0661582814465476 40.12864941738386
-3.2211937791289205 1.8598700036862563 41.09396774711458
-3.044941713938335 1.571865678197431 42.03523748423343
-2.837799676407551 1.1985871689583854 42.9395357374817
-2.571102410812776 0.7411268087406816 43.78782966493477
-2.2511954367124605 0.25087494356419443 44.59857786050042
-1.8691591299357113 -0.23760359634185962 45.38307577404489
-1.4011712365444589 -0.692454003513462 46.14076861335053
-0.8218882265572507 -1.0455713264831061 46.87543816529815
-0.16978718057252543 -1.2184130996929614 47.613604777425316
0.4878822558605147 -1.2188840240870948 48.36691128251608
1.1263551695546647 -1.0991439955893667 49.12718403887018
1.7413963396045 -0.8742875118732136 49.88293791472828
2.3471605408476672 -0.5850817865383089 50.6241597310058
2.9613124515690625 -0.25027558906845443 51.338808064588854
3.596644807115308 0.14136881424743997 52.00436607058637
4.257844784623272 0.5970058702027625 52.60036058648718
4.93966365195657 1.1171364254565306 53.11474102705597
5.622716470587309 1.7013429390633041 53.55308061735101
6.291071237927894 2.344888456416642 53.92611020339954
6.926731780629506 3.0418966414301742 54.25794640467425
7.505867620722479 3.7928695081696504 54.57518674281065
0.0 0.0 0.0
0.14647594232436686 -0.13980581547358892 0.9792850107501666
0.287735343273407 -0.2876945036723323 1.9581490041355467
0.3899940247810002 -0.43473384874507015 2.9419795754520255
0.4398717792016603 -0.5674072634745244 3.931883598394643
0.4298701416453643 -0.6666119426443444 4.926900381608377
0.3376336124582535 -0.7171024968833122 5.921356578037439
0.15163356655600405 -0.7124429887491701 6.903895265269808
-0.12123641556259282 -0.654639531523626 7.864208096169912
-0.45968734577203463 -0.5553406594379685 8.799938133009
-0.8508282595479467 -0.42113487237202196 9.71043118201517
-1.2889424928596172 -0.2539624422299799 10.59366914381829
-1.7636124460292923 -0.06623110210974312 11.453579243476714
-2.2665846401829963 0.1299030383510403 12.295333584632088
-2.7786314482902235 0.32592547634322316 13.131624963345752
-3.2904236804218567 0.5191391793759955 13.96872542093139
-3.791177869534807 0.7023826650304992 14.814696500254447
-4.265062864011628 0.8673850028666008 15.679686234597188
-4.698582625942569 1.0075848115783206 16.5698573584001
-5.078853290354538 1.1107750275041761 17.488958006384234
-5.403246041371324 1.1636822445494237 18.433399730087867
-5.6719626835511745 1.1555422182526458 19.396584606519944
-5.882529486192117 1.083220562170189 20.371485216678263
-6.035045458695236 0.9544848986920214 21.351365825262935
-6.12905232783916 0.7823369534979109 22.33194106129493
-6.167154845453913 0.5867453782402273 23.311886025994294
-6.154827143728951 0.39189951740781015 24.292642427088193
-6.092289418901276 0.2144797172703458 25.27478867255908
-5.982233919993563 0.055199191922370966 26.25586843557789
-5.830530405735314 -0.08382696783661414 27.234468338839875
-5.6348330805642926 -0.19189640006398653 28.209159856572004
-5.405466287029071 -0.26277876708952563 29.179915523085587
-5.1616411867101855 -0.29774188368100474 30.14910430806646
-4.939209384837842 -0.27536771736691734 31.123795792689965
-4.780921461502206 -0.16832786561657356 32.10536973461352
-4.6921153570874665 0.0359025349763607 33.08025609685905
-4.663519056356995 0.33353114900336844 34.034509448803334
-4.689588007355884 0.6976591337865147 34.96549345537465
-4.757973157162105 1.1027700400270462 35.87719989109338
-4.832872665453529 1.5174095104688963 36.78409799629011
-4.900257009515365 1.9111269362680618 37.70085638256069
-4.940688089344924 2.2372539214278286 38.645317349109554
-4.89805434936602 2.3899597496008678 39.63266900594586
-4.755952064447449 2.2738204719500255 40.61568406626165
-4.515326672153473 1.9899167756949323 41.543853292123
-4.191141609461167 1.6204073476608885 42.41469588853244
-3.796144565043854 1.212904307850782 43.23805401683817
-3.329811077249267 0.8277867161828028 44.03443176561647
-2.8034582180109577 0.47510708417528125 44.808104658213004
-2.203225778468365 0.1786744018355809 45.550969843399145
-1.5322171042110269 -0.017697599406773123 46.265942147897356
-0.8200964745768733 -0.10806832462744867 46.96215859475318
-0.09690871592208536 -0.08084452365467537 47.65227331738446
0.6115792476376336 0.05511732893780438 48.34477543299901
1.309512732990967 0.25512730424590035 49.032441674572496
2.0027636544012806 0.5168933530238375 49.703918923383604
2.6938486199693497 0.8584287460178606 50.34090804864258
3.3802666683541296 1.286410289021634 50.92883836908858
4.052634519434991 1.7997052987540882 51.46217663493556
4.700456059480162 2.391799205822973 51.94150121960174
5.331260251620806 3.033934223257848 52.377102746873746
5.950506508458982 3.707129018659093 52.781259697620094
6.558924909477887 4.401676038111173 53.16522777841826
7.155346988516888 5.114508151973513 53.5342143379043
0.0 0.0 0.0
0.1349134749011126 -0.03088051418734314 0.9903760639946991
0.2692733199656362 -0.06401502414573862 1.98075454532598
0.3911677334356928 -0.09768846737986964 2.9727262441085354
0.4846232476206136 -0.12613514791393288 3.967943232124227
0.5327882882631331 -0.14079851176756802 4.966674985209308
0.5198968412482947 -0.1353647892228064 5.966577123047392
0.42993211578783996 -0.10693289837495809 6.962116160833275
0.2529772742625128 -0.05664156127708245 7.945049406518684
-0.010687643240426647 0.012605281550411643 8.907175014761492
-0.35301156245378845 0.10049508708160032 9.842637315668425
-0.7598983030976804 0.20744227004210036 10.749833810560796
-1.2111926033115092 0.32839035247439763 11.63397464546803
-1.6879928808435438 0.4545769129704442 12.503881794131352
-2.175805900064666 0.5788390401350579 13.36794046229625
-2.665842743187196 0.6977952969402096 14.231487392896673
-3.1511262751178792 0.8053717016634254 15.09920117680454
-3.618756074069455 0.8943763371648941 15.978633121864396
-4.052141336138802 0.9599621060902623 16.87745219238724
-4.4357477036277135 0.9960768521725968 17.800242461049283
-4.758588414959218 0.9974068133218149 18.746694840363904
-5.01247054378523 0.9623844652832241 19.713295740322433
-5.194702161091762 0.8941532778728735 20.69418112746938
-5.307292439116231 0.801490639340049 21.683492536841833
-5.354595513044913 0.6944980324970712 22.676626466016465
-5.3438956313054025 0.58428930616957 23.67047733469447
-5.282236782400132 0.4808834190143967 24.663203585406787
-5.180107078135115 0.3914176635642502 25.65394341104643
-5.051093060800275 0.31674483410673654 26.642770671932748
-4.9059988306148625 0.2563757539040211 27.63034509369669
-4.75014435084516 0.21580210974572425 28.617291475490266
-4.586631724308857 0.20631692457815096 29.603787117764238
-4.422743534877526 0.23821125409281835 30.589750308309267
-4.270625491458139 0.3304204376465455 31.573801916373913
-4.138479394330111 0.4878340627028436 32.55245321262834
-4.027289465245184 0.7022870849948284 33.52283803366581
-3.9321753815823515 0.9557112882433807 34.485505932942
-3.8440584180471404 1.223351932609107 35.44498698341712
-3.7580134042872357 1.4899673377176474 36.404941399712946
-3.6713972685980467 1.739939067577998 37.36931258308007
-3.574836982337942 1.9390904338679131 38.34451248280434
-3.458320790394107 2.0611445474371317 39.33017305844675
-3.3166259446003323 2.0567680450471486 40.320073769075
-3.1435034144619385 1.8927009078482009 41.29121256659563
-2.9283909033099205 1.621685620774365 42.2294435198892
-2.6644848269222408 1.2698292019577933 43.127525166168226
-2.3388510316936317 0.8585458856101058 43.978882121328084
-1.958838334030157 0.43839507301134445 44.80293530182503
[...]
CELL_DATA 87
SCALARS quad_param_group int 1
LOOKUP_TABLE default
3
1
3
1
2
0
3
3
3
2
0
0
0
0
0
2
0
3
1
3
0
0
2
0
2
0
0
1
3
1
0
3
1
3
1
2
1
2
1
0
1
3
3
1
3
2
2
3
3
3
2
0
1
3
3
1
0
2
3
3
2
2
0
0
3
1
1
1
3
2
3
3
0
0
1
3
2
3
2
0
0
0
0
0
2
3
1
SCALARS single_component_feature float 1
LOOKUP_TABLE default
0.5279976284839998
-0.7951704853650876
-0.03165587512107032
0.30747105195594926
-0.29928878148148064
-0.05352546165804939
-0.15100496221003917
0.035612936626463615
-0.2584556836554831
0.0456158394561807
-0.6285048750823985
0.17476004491648728
0.5861582194870048
-0.20947590034845376
-0.5035827395887899
0.3402559064124826
0.23887456576504362
-0.8491535437322087
-0.16092460109245715
-0.14072916698678883
-0.2998154527522109
0.7925217611852683
0.44933250441612776
0.043330294759509946
0.1985172852361708
0.4319441181026295
0.103634409092286
-0.09088862960814692
0.1651175119091164
0.7342240414522789
0.10425526749431552
-0.34611472350951145
-0.4800678257003763
0.5098380397306863
-0.32736380828783973
-0.28920662320357965
-0.42733732321842555
-0.07498715522795196
0.4035543419985156
-0.5206706936326951
0.4195880954526141
-0.5248985752739828
0.30364784460600214
0.07314015293400333
0.9132665073418424
0.17176399519399385
-0.46690792517311386
0.6544251540629012
0.06074703994336478
0.12886178013140642
-0.4343406362152564
-0.26088839164155025
0.28587986487671335
0.059727980578101136
-0.6905466758856621
0.07831416935574217
-0.5670985570222374
-0.16352456855838227
0.47933251520312015
0.43223823820738444
-0.06707964522032628
0.4115178176811872
-0.22139959938297954
0.024034113924752715
0.11332081941658255
-0.11308464323521558
0.5986074767463088
-0.27065091369716143
-0.862857078769893
0.1863704106462599
0.33539194257274924
-0.1683190987609129
-0.07873878877352297
-0.0005881614083319553
0.18825573848370508
0.3749583272459293
-0.14868738859713154
-0.3945219927906219
-0.683416054592173
1.0107166447201115
0.3224841539285118
0.36631051977568885
0.06911888405197208
-0.7180235723262658
0.7805264200581088
-0.5940957983166529
-0.6679699985151526
POINT_DATA 5568
SCALARS single_curvature float 1
LOOKUP_TABLE default
0.0047875480257029415
0.014218679878019523
0.02666092914546841
0.04377839512271753
0.06321419648423705
0.08129318658392648
0.09587456440189214
0.10019548309013215
0.09118768542811172
0.07033023378624567
0.04677615909105974
0.02752150306947876
0.016914462565043333
0.01641756829028461
0.022877864989827187
0.034241718430558274
0.048981112534666395
0.06559613217021183
0.07912890534524986
0.08757057142498714
0.08880966277944784
0.0821663679433206
0.07181930545003423
0.05815907181426538
0.043711480059516465
0.031500661782333746
0.023435185665202977
0.023586408854358545
0.032328449106171255
0.04726307547785197
0.05823265450792146
0.05868644987667066
0.048426564326802576
0.029979177739040824
0.017687538087651174
0.023487917495942756
0.04034634832263615
0.06246047521834921
0.0897910857138181
0.10519368918335441
0.10625715599835511
0.1081714082016994
0.10599831227335743
0.09334377162892643
0.08858330296192005
0.088130197481532
0.09679186239592724
0.12658138847109057
0.15232962701872935
0.1586012457175946
0.14774857427459046
0.1165669299112421
0.08711470964949401
0.07625441549790393
0.07382917126101673
0.08359653239970784
0.09498020921690459
0.09780235365968028
0.09211968963040736
0.08555743878799786
0.06086111940329019
0.03616480001858252
0.011468480633874858
-0.013227838750832818
0.025889136635107373
0.04305520353395678
0.06445332615801513
0.08184676662091156
0.09411556911366296
0.09723463550331221
0.09043102327686535
0.07907118226552727
0.06511573488030585
0.05348559463480793
0.03916061129125597
0.024034894810390398
0.016373125876625195
0.017116549663399087
0.027871231710277212
0.04485556416017821
0.06029930089252348
0.07200222394455617
0.08037289901621554
0.08287376006442895
0.08127094205800249
0.07529528957440536
0.06612004936943873
0.059175924914912505
0.05370503103233333
0.050156991354817146
0.0510272028611809
0.05031794196571276
0.04729700020477765
0.05105049921867356
0.06410090873619212
0.0812946932123533
0.09966696768734917
0.10651058353169475
0.0955391205406867
0.0689862587069111
0.04693035670793899
0.04411555566903847
0.07751390532526306
0.14445817803106348
0.18742987648852613
0.2005560802435588
0.17576375121234344
0.12586066143079389
0.09394223229267006
0.08535022170307799
0.09333779282720378
0.10215695549453727
0.1135744294513527
0.1165034519909344
0.10158577669199984
0.08893718520402773
0.08119012205877998
0.07865522576621069
0.08785691680269522
0.09641745909612247
0.0918843155133497
0.07855439532037918
0.06093892941242859
0.04298532632487583
0.02586715364440304
0.008748980963930252
-0.008369191716542539
-0.02548736439701533
0.010997760868136766
0.022858797971231734
0.03832785130032772
0.05526679767881709
0.0705531123588083
0.08139285099599511
0.08655327029273548
0.08468638695367982
0.07511227835753659
0.05983299374141567
0.04177322967768156
0.02499588445773136
0.015269151292524442
0.014894621531943477
0.023182612677367254
0.03737240923440684
0.0525513320418629
0.06557482956438541
0.07413485585181123
0.07702891074980474
0.07530294992179956
0.06973782986704453
0.06257365217654065
0.05475318170837464
0.04573315090758773
0.03661984777669356
0.02941072083130444
0.02670690989164948
0.029363423555908846
0.03932573918692961
0.05075981383098661
0.05805840834710017
0.05842504572968355
0.04713386668673067
0.030657125864849963
0.019646836817857883
0.022155335168440666
0.038164291042324196
0.06965856613652817
0.10588626851665994
0.1222738771016701
0.12774055147058969
0.12005184648696313
0.09489258389690507
0.08125148219472308
0.07886126098490402
0.08767162563893638
0.10946767579706376
0.12873730347472803
0.1337181704269064
0.12228052112269913
0.10118028163413147
0.08185744280733272
0.07420503550800822
0.07575553810711
0.08322885599893466
0.08758376003604168
0.08380710982716888
0.07371969203397097
0.06256643632116682
0.042098028565937425
0.02162962081070803
0.0011612130554786368
-0.019307194699750757
0.006729695908597461
0.0169603709313784
0.03045842282826973
0.04746424068771251
0.06508750910613798
0.08016164198340472
0.09095451401021591
0.09288928407828219
0.08391015866999285
0.06554767645893284
0.04445574864085496
0.02632402214839463
0.015999530650076463
0.015476663244506058
0.022671862696436337
0.03525374009544695
0.05020352145515283
0.06509289066267154
0.07611061290668523
0.081801421266076
0.08158010972937718
0.07556434497007686
0.0670100963505294
0.056199789859127505
0.04415801433580154
0.03306094310855867
0.024799572149168475
0.02335023124242937
0.029453172143574367
0.04232232109111584
0.053304627210136735
0.05635270269596435
0.050104175037892315
0.034127786852487366
0.019787761723788457
0.018548595666165978
0.03005072706675404
0.050353184104746186
0.0796243111125215
0.1034115481909193
0.1103531766421271
0.11353872384097606
0.10961292069289716
0.09219393066330789
0.08416871995277862
0.08313663142970878
0.09189761050248689
0.11857834927527447
0.14157720133072313
0.1472782684145069
0.13636208315231427
0.10967653854079679
0.08449578592971924
0.07488852439814006
0.07389968536308503
0.0824231435407334
0.09093018029498263
0.09114665986563959
0.08381727981969919
0.0754877516324914
0.05266989755626184
0.029852043480032286
0.007034189403802724
-0.015783664672426825
0.015425734690795768
0.028903087027018267
0.046221562451178824
0.06321181562305497
0.07707081324352473
0.0849124083952946
0.08577589587032408
0.08075612766997407
0.0701425481435512
0.056656541334922025
0.040372993859051756
0.024368536199673163
0.015244336309612062
0.015137407224071153
0.024278157550612127
0.039561677754744624
0.05487315511859039
0.06702656121706105
0.07473211730299349
0.07657549075900692
0.07431398278077193
0.06877098660363416
0.061654662624741535
0.05504773661097263
0.047799871294181256
0.04047502399378591
0.03522054354370764
0.032500023746068356
0.03288045380915853
0.040653917718552056
0.052659249403186816
0.06346513767037827
0.0696119996083137
0.0631461169639188
0.04629516310336287
0.02838479574928375
0.023042238089805184
0.034244190009512204
0.06706170396923516
0.1134893819064458
0.13804715957352928
0.1456701332702237
0.13371666201506777
0.1014811190956766
0.08260697958148416
0.07867962230176764
0.08742833619859725
0.10516630583376133
0.12173916528113747
0.1261184923634545
0.11379736651469236
0.09614633857699753
0.08099133070008475
0.07496801937000887
0.07887375682758992
0.08622484579548755
0.08745345992209605
0.08045603941085787
0.06794337420719168
0.05444476425743553
0.035384521146278144
0.016324278035120758
-0.0027359650760366283
-0.021796208187194015
0.011325250221706419
0.02330771365160708
0.03891826603346546
0.055857695014018716
0.0710131718980195
0.08159642023291117
0.08640112387111643
0.08428232304622336
0.0746425134916355
0.059530804608414915
0.04163610187503313
0.02493120424011183
0.015249339904766079
0.014891757788900775
0.023249413640949818
0.03753376017597255
0.052724874228445066
0.06565848685771512
0.07411439111192672
0.07688512549414965
0.07509345450632787
0.06953966839753256
0.06241251596287796
0.0547285627393014
0.04587398839375561
0.036899629322216486
0.02981326972914091
0.027076712178335745
0.02953354657969074
0.03931491620503328
0.05079114983595515
0.05837295521888547
0.059191281039055216
0.04824945430951515
0.0316726293938679
0.02007509805084669
0.021970032240905917
0.03763944272950702
0.06927212685440502
0.10630625567594061
0.12333097128368031
0.12895990831844473
0.12097239606136635
0.09527614471658562
0.08123909873569198
0.07874079268198007
0.08755125307217942
0.10902718137110494
0.1280727673837805
0.13300808800947003
0.12151403152282785
0.10072263792356173
0.08175119427072709
0.07422729144479912
0.07595750806639597
0.08339828680143851
0.08749445422994412
0.08345821663356184
0.07318134222199225
0.06184006621677744
0.04149989647755966
0.021159726738341877
0.000819556999124095
-0.019520612740093687
0.012860097207724016
0.025407127882354476
0.041669338455138934
0.058618687643757016
0.07322138541372736
0.08268615742336725
0.08591552889605752
0.08266208808586584
0.07268814621400112
0.05827770386924407
0.041075162197217276
0.024672527607306097
0.015199970774148714
0.014928577012105893
0.023596512652846555
0.03829066824991202
0.05353312432614592
0.06610780113960882
0.07417511917334195
0.07647777789308252
0.07444026454656069
0.06891507580783102
0.061879970537442625
0.05472325336426378
0.04656179520912959
0.038222575395279006
0.03176371077840698
0.028949916662527754
0.030547181037974526
0.03952747008756544
0.051203705366804096
0.0600571022982018
0.062932116845156
0.05363730391830263
0.036761789177879894
0.02260337725446908
0.021705488707508325
0.03575371169382293
0.06793170744065152
0.10860312042088062
0.1285281723090978
0.13490893239395274
0.12548946148831827
0.09731865344866256
0.0814532659262237
0.07843776928946651
0.08723938484436312
0.10726782047657296
0.1253258478368078
0.13005094318531052
0.11826977534936603
0.09879196169944045
0.08135962256884154
0.07441720106447386
0.07697551915274652
0.08432108909702474
0.08727262687261418
0.08207254623850933
0.07093254373863156
0.05874479340513049
0.038945835363819674
0.01914687732250886
-0.0006520807188019548
-0.02045103876011277
0.010029601600721841
0.021529326962705698
0.036574005900808816
0.05351531355388717
0.06921951687503321
0.08086090125771532
0.08712091134717924
0.08602323394282826
0.07663016105238472
0.06081180106628157
0.0422215747061458
0.025210426473783753
0.015350436861742669
0.01492928981837187
0.02300268046832775
0.03689531547393374
0.052035087709724884
0.06535723936217466
0.07427736883178256
0.0775932419852486
0.07609341565502478
0.07048126589339672
0.0631646746721565
0.05488208820961422
0.04533046224756379
0.035798053242027277
0.028252795468294272
0.025685606053864555
0.028972568960409926
0.03949501292836656
0.05080717997865345
0.057240460499142776
0.05623894499303714
0.043914880164831846
0.027799466097563452
0.018626696817744114
0.022994726547172294
0.039997100893079805
0.07104600847612137
0.10480756148195396
0.11926300612276473
0.12424416925499733
0.11742712414208971
0.09388280757091913
0.08142979021311955
0.0793551722279761
0.0881618499336051
0.11093528817497653
0.1309025160095263
0.13602081177656639
0.12473756110371861
0.10265136001890728
0.0822306893530534
0.07418634435913218
0.0751974475930355
0.08279720224285685
0.08795353474211387
0.0849726035021683
0.07545848869162065
0.06487891013565386
0.043999054240558985
0.02311919834546411
0.0022393424503692333
-0.018640513444725643
0.014691884128406338
0.027904599814098843
0.044924454539797994
0.06190019429320002
0.07595210974468664
0.08423120335260814
0.08574264259083465
0.08121444609604782
0.07079301376813261
0.05706951490028243
0.040548790096045444
0.024441800653682327
0.015217970404649919
0.015061724033330282
0.024072042403413398
0.039197180435434395
0.054490751065788504
0.06674568546627624
0.07452386471833487
0.07646348843554603
0.0742453296946158
0.06871395553284974
0.061645986828859606
0.05491784516588063
0.04743551296644433
0.039825672238783416
0.0342096645875667
0.03143853250791302
0.03214355337318629
0.04024835128158635
0.05216122071231752
0.06242833029387818
0.06765646788757813
0.06036867893276702
0.043451418394461504
0.026561462785403618
0.02246753371783944
0.03450305034932252
0.06716384216031755
0.1119691987619835
0.1352216284791368
0.14248970805260228
0.13128112374945938
0.10020574290793594
0.08219044783263968
0.07853070197205587
0.08729959337306907
0.10568089613883126
0.1226620286792598
0.12713988267084841
0.1149791730060458
0.09684369995305504
0.08106761704830948
0.07478650275983803
0.07831043243008572
0.08564238820533077
0.08734398525530261
0.08084522009739578
0.0687178384855957
0.05558269404743336
0.03632834417755167
0.01707399430766999
-0.0021803555622116957
-0.02143470543209338
0.009890712740016381
0.021338291480286396
0.036321270054521876
0.05326341419107204
0.06903173263467109
0.0807939552454039
0.08721818939385449
0.08623418912184094
0.07686533701865361
0.060963764492821315
0.04229170586579712
0.02524435853698738
0.01536516573722315
0.01493780000536885
0.022979224582378756
0.03682682912249496
0.05196055643536597
0.0653300228614923
0.07430890012016207
0.07769300995540565
0.07622989233680312
0.07060912045867927
0.06326483414515123
0.05490806699791559
0.04527448506114113
0.03568082758700902
0.02809094192805043
0.025548726967689474
0.02893157248283076
0.03953782320373367
0.05083296933604563
0.0571383910179661
0.055936072893031576
0.04346348864616548
0.027405935866810824
0.018510531917176314
0.02315165226369928
0.040295446727831995
0.07127799069859211
0.10467416738765287
0.11884556329894491
0.12375618682578123
0.11706289619459137
0.09375432987544294
0.08147433507985005
0.07944456044137156
0.08825034745383561
0.11116842726278728
0.1312407040239161
0.1363792139668722
0.12511645736476906
0.10287877306200442
0.08229245546676163
0.07419016819673281
0.07512273507668965
0.08274472636540889
0.08802102827854912
0.08515812191603403
0.0757280555375142
0.06523316676554097
0.04428985350779245
0.02334654025004393
0.002403226992295407
-0.018540086265453115
0.022067010661941108
0.037900489008883174
0.0578364472772601
0.07504389714663219
0.08768833549385166
0.09227069166277464
0.08800306792468783
0.07885665007147745
0.0662365511793266
0.05419418395411579
0.03939620677662829
0.024042651545529353
0.01583352782318883
0.01623828084762713
0.026443297759790742
0.04290152316741102
0.05832158445530325
0.07002524936056431
0.07786234313522677
0.07976443206364116
0.07768586831649259
0.0719027704697317
0.06371166628077507
0.05725220028986247
0.05140872457406704
0.0465291353753641
0.04499512163163171
0.043338252149188426
0.041362099670471136
0.04647146561443971
0.05920719262821701
0.07431228608479419
0.08836345334834722
0.08996753740646288
0.07576647814891473
0.05076892390776373
0.0346440100245071
0.03746051708377553
0.07098407548108943
0.13124342957898003
0.16740036391183202
0.17836010293394225
0.15877129427748565
0.11567977266509492
0.08879105694706983
0.0821189464774937
0.09049236214106861
0.10257781678439828
0.11579647630674099
0.1192707055872422
0.10535203723696653
0.09118019128831785
0.0809473156995134
0.07715958843741791
0.08444861948924054
0.09241377601634651
0.08983069427018572
0.0786878849323324
0.06286794565745167
0.04640174390817584
0.028697308428686227
0.010992872949196611
-0.006711562530293001
-0.02441599800978262
0.0082167976270907
0.01902830809860029
0.03324750537376871
0.05021126190076515
0.0668524680568813
0.08021251414852552
0.08877421032814448
0.08924272753878655
0.08012450300917458
0.0630773843913961
0.0432792549274525
0.025730425541131134
0.015617617702992867
0.015126751651449838
0.022753518367857547
0.03599878688759374
0.05104859822661509
0.06509863720639364
0.07496021136752286
0.07935531986198839
0.07843727799670369
0.07266436943868013
0.06484229172356384
0.05539951908637299
0.044640962780039053
0.03428169756655631
0.026240541076384113
0.024130595815823535
0.028802977099985767
0.04050632911232586
0.05161238335365847
0.05628856018567958
0.05255030162461941
0.03826451954168393
0.022986322237293914
0.01777118889384909
0.02586426641365444
0.04469583220201276
0.07486136679582801
0.10354498601568927
0.11410956646822214
0.11814244889496077
0.1129215081788779
0.0925730880595691
0.08245185642813913
0.08095570554528067
0.08974504908330719
0.11452354432511642
0.13599325421384323
0.14139624844057405
0.13034521639181407
0.10603094924577683
0.08324230970341333
0.07439589589819169
0.07435019108110677
0.0823400192592636
0.08918684846212825
0.08784354740690965
0.07947204881307683
0.07005642012453298
0.048239003384129016
0.026421586643725056
0.004604169903321104
-0.017213246837082863
0.004386050595292478
0.013641089615131875
0.025834254474890368
0.04298986973519387
0.06293933290022634
0.08184209680907917
0.09743946501357663
0.10238006319870405
0.09331141733172332
0.0717321501244423
0.04746314837581292
0.027880241998612956
0.017214432707158268
0.01674185760876554
0.02300401324933724
0.03401994257765463
0.048691898804627536
0.06583331144531476
0.0801592044223911
0.0894545458235635
0.09114096593313496
0.08428036674380726
0.07333428853081138
0.05880008310088875
0.04366386273770362
0.03118396760249253
0.023291129057969005
0.023972758841946842
0.033470776509605546
0.048985129884969565
0.05999599875170133
0.05978840701751493
0.04849537606424196
0.02947112709207038
0.017825593492179458
0.02556918012443466
0.04376953382705093
0.0662070711717568
0.0929034657561152
0.10603002781592383
0.10557397126627178
0.10718800092494708
0.10541031237427542
0.09401580204319075
0.0900781044716099
0.0897359083345678
0.09835153141291063
0.12893276966455278
0.15543970171068386
0.1618736304452118
0.15100647090328279
0.11852534306999847
0.0878905778824531
0.0767065245973046
0.07393096426338461
0.08410200189790015
0.09626875972893198
0.09978166645870915
0.09451713177625136
0.08841384835961939
0.06318242141020006
0.03795099446078072
0.012719567511361385
-0.012511859438057951
0.013838906323690987
0.026742614826680864
0.04341202605060178
0.06037365653540725
0.07466893609940382
0.08348233483904556
0.08577452063795765
0.08183068988240388
0.07162363284259142
0.05759816087240205
0.04077707678704529
0.024540056332207138
0.01520046232222401
0.014989103993682723
0.02384323636488949
0.038774516817155595
0.05404549696558245
0.0664365781323188
0.07432876888661767
0.07641410135212505
0.07426640691889937
0.06874242406991846
0.061706578374445695
0.0548028252267681
0.04702204521497751
0.039075988265011415
0.03305620554234467
0.0302492203272638
0.031353984666160524
0.03985710502767647
0.05166058817383216
0.06128222905865979
0.06542625307632383
0.05719672777351046
0.040260768341733526
0.024606020254111752
0.021984828133575916
0.03496914282964168
0.06742305021352044
0.11032313428914285
0.13204041857997167
0.1388959727140131
0.1285323764796892
0.0988062427518727
0.0817898378284506
0.0784340942309217
0.08722133176070247
0.10636116693295583
0.1238323732751532
0.12842504253287138
0.11644516279777323
0.09771045634666078
0.08118375873237309
0.07459826130535287
0.07767505322738005
0.08500158719996463