# vtk DataFile Version 3.0
vtk output
ASCII
DATASET POLYDATA
POINTS 5568 float
0.0 0.0 0.0
0.17583298865920663 0.02780228630967939 0.9840273334491914
0.34734473694728674 0.04894942742949766 1.968982418019866
0.49447224776655074 0.06599128405074714 2.9579531307727907
0.5937183493852499 0.0851813881734092 3.9528309882091968
0.6245033665300307 0.1153664001056913 4.951901129777868
0.572665318901222 0.16333709699197876 5.949403826044037
0.4281406444772956 0.23405916543973612 6.936374447449319
0.18740435629543298 0.32954519311753927 7.902256664943115
-0.1432029080417239 0.44768232607114344 8.838601929567764
-0.549766501152953 0.5869106539255309 9.741553488334544
-1.0126363700211747 0.7455991709419906 10.61365981158936
-1.5096588112083247 0.9166653915083839 11.46436836399582
-2.0224437231985197 1.0907291069287213 12.305054665186267
-2.5400824170359395 1.2621390849140293 13.143308088733923
-3.057458466670783 1.4255015770379995 13.983328754807852
-3.56423208711025 1.571299334883872 14.832989576214718
-4.043459302219417 1.6916384874406356 15.702391534264406
-4.475554720497603 1.7823883996258039 16.599641779703983
-4.843854709969322 1.8389181172088467 17.527628583912488
-5.136908820927698 1.8579020289659172 18.483535953454535
-5.347160059518501 1.840441709856404 19.461027413226756
-5.474635907026285 1.7908720233676438 20.451629631316123
-5.5260586183946545 1.7167044273366554 21.447548740709305
-5.511789802176607 1.6269676559014312 22.443412040934852
-5.444349397370665 1.5323961023280719 23.436643138441536
-5.334414288983189 1.4426304886478611 24.42652010379857
-5.1956897189475235 1.3651086429022328 25.413812288058434
-5.039549963537751 1.3045870380595206 26.399691343585957
-4.872991914733923 1.2660824376433475 27.38497090397755
-4.700018791233747 1.26128613570839 28.369885770366693
-4.523172981859966 1.3065438250814896 29.35308325879897
-4.350413498941382 1.4191246622221145 30.33159218373038
-4.1886806629192925 1.6210365236653699 31.297549786299335
-4.041597816080682 1.9154704830377756 32.24183537855103
-3.908078785870468 2.286366045602984 33.160861575262075
-3.7814483955660068 2.6973562087500444 34.063663785077544
-3.657380677600611 3.116149014887532 34.963230228919436
-3.5354503425291868 3.530724788503136 35.865039477774424
-3.4182252189254934 3.910221748050597 36.78277600210498
-3.3009002259396705 4.203571335438214 37.731554619908096
-3.1751416040680818 4.374191273768062 38.70883329340367
-3.0349453533248907 4.358479317139048 39.69883235688628
-2.8654701358631174 4.122009663955712 40.65557696951268
-2.643785200931547 3.735899116130691 41.550995550112084
-2.3551602803243017 3.2515264842055207 42.37687617625992
-1.9846704021899904 2.710752828328063 43.132059003996986
-1.530917983625213 2.170056180152051 43.840406289795304
-0.9865101678404911 1.665237537033719 44.51031543861526
-0.34304488126804666 1.2363981263493538 45.14438892396229
0.39071765436172223 0.9427645696934183 45.757064919666185
1.1655969595684001 0.8231461872665996 46.37775284845811
1.9276039521066708 0.8668219888144857 47.02384708901589
2.6544507061769376 1.0315435778737543 47.690600862305025
3.352740427532002 1.2822643154951392 48.36107127684728
4.0395896184318705 1.5911466586702954 49.018969359406285
4.72875000886365 1.954133590223783 49.646104467482125
5.427895290468081 2.380474308642352 50.22006393210363
6.135002481353287 2.874796233581723 50.725677673137895
6.840606924693245 3.436797356702534 51.157275990036666
7.535669890781137 4.05676205385099 51.52132440366145
8.21393174145888 4.723207904703801 51.830857584106255
8.867941179124006 5.427982444969109 52.10574756726092
9.488563972453905 6.168986352708114 52.362146781602384
0.0 0.0 0.0
-0.0603604955218556 -0.310345939489949 0.9487054381748093
-0.07922623738140283 -0.607481335383455 1.9033543999881553
-0.06218078366047822 -0.8890723868275392 2.8627374998257866
-0.022569423533507563 -1.1477869950964565 3.8278787804770453
0.02927284086965154 -1.3716482529712917 4.801120023357888
0.07408391122398082 -1.5572953540455612 5.782714197055155
0.08152657858675662 -1.7130038049185445 6.770489214470184
0.01725341805267827 -1.8535994483380216 7.75846787106476
-0.14733739165801762 -1.9873177283348482 8.735723869743444
-0.4260751589495172 -2.1112577230060094 9.688060015653207
-0.8247891357590442 -2.2187482592477767 10.598814070991523
-1.3291537946616028 -2.306139777561061 11.457871119956843
-1.9242415915047422 -2.3730167935814053 12.25874438007769
-2.5943081407418327 -2.424266832805455 12.999274091212248
-3.3085741162621587 -2.473281111247064 13.69743003133082
-4.041455130844137 -2.5282863374757967 14.375559697067997
-4.780214300947041 -2.5900766313153225 15.046690718684562
-5.518964989945308 -2.6570977303601837 15.717328916066284
-6.2524863354031215 -2.7339569092982616 16.392635588897765
-6.971808184222124 -2.8304048238635473 17.08058462595474
-7.6632886996297085 -2.9579863989170905 17.79162445502096
-8.31358888326933 -3.118785745063666 18.53408875816092
-8.90977831571324 -3.298656786041171 19.316523783744437
-9.430813335346931 -3.481544793234254 20.150235055792656
-9.854721042320786 -3.6527863981435362 21.039604815069563
-10.169994922225028 -3.804275867915886 21.976436348056268
-10.368874837961776 -3.9395561622845636 22.947078414459774
-10.456914962511362 -4.089073487946202 23.93191012891473
-10.450870082717827 -4.2835984170465 24.91278907730072
-10.388572911688213 -4.517175859770674 25.883129554005748
-10.30562050464238 -4.761610861826098 26.849240535174822
-10.216905848941561 -5.008395439500179 27.814241613975312
-10.148606487926688 -5.239857776326223 28.784685009499228
-10.132003662608893 -5.444903666814333 29.76329654069299
-10.167540459674518 -5.638700296193251 30.74369442038046
-10.28507704315374 -5.814863452309217 31.721013044970874
-10.46861351831539 -5.963705759795593 32.69269217399823
-10.685388810092343 -6.08505222358729 33.66134252815099
-10.871700370470817 -6.181315424931378 34.639105995732145
-10.941684599946225 -6.2363137622282085 35.63513681378915
-10.847264206380633 -6.240285096182843 36.630661307604115
-10.645519386706102 -6.235557437553557 37.610088015928106
-10.396830433871338 -6.278028458112922 38.57773982166744
-10.131507743055815 -6.362116778155955 39.53822564882511
-9.873108010793853 -6.5454796420563905 40.48670213166967
-9.611110028022422 -6.864783813319038 41.39741718218655
-9.355513611381353 -7.220375447296468 42.296430564537175
-9.105525759231302 -7.59552375834277 43.189050202735054
-8.842911639557409 -7.985795149526819 44.07150250477249
-8.534171978738733 -8.372851417449272 44.940333482178055
-8.152909077768651 -8.724613770641763 45.79526145997522
-7.687889292150499 -9.000372974152341 46.636518531661906
-7.149668394522004 -9.181731831774307 47.45957820757735
-6.556407821247566 -9.251875492984789 48.26152693348823
-5.936379730691754 -9.219385998148976 49.04543356035588
-5.297861833933137 -9.102803356998363 49.80615912407863
-4.64505920465395 -8.890817824976056 50.53342170487005
-3.9797165145113143 -8.598077835188949 51.220169404577305
-3.300353558368766 -8.245873995793449 51.863922796285905
-2.613237994539094 -7.84821832892834 52.47198707952666
-1.9223100448184691 -7.413142268633382 53.049332201661656
-1.2370307394370608 -6.946957064417053 53.60885309402025
-0.5740627138194996 -6.451437532435636 54.17004271476681
0.0 0.0 0.0
0.025832564831541782 -0.1815932335216268 0.983034371796523
0.06216570934793624 -0.36088080878872186 1.9661599324266983
0.10159514540655705 -0.5358411629082551 2.9499455767916007
0.1393121171381264 -0.7037216186830344 3.9350311480047075
0.16751730446558366 -0.8555575280752806 4.923034348417971
0.17171153118939425 -0.9845601168859196 5.914669735312944
0.12754233523788316 -1.0910098596693611 6.908006301835256
0.010972532229459315 -1.1827660549421373 7.89694122469704
-0.1933753394578257 -1.2649167619216817 8.872386358305096
-0.4901605691150447 -1.3356322076058211 9.82470870562191
-0.8768753166590687 -1.3908072766449975 10.745256051383379
-1.3374482100573275 -1.4302748970549344 11.63200004871628
-1.8542440452794886 -1.4584787521619291 12.487644020970006
-2.410184749652434 -1.4830484248523954 13.318502772145678
-2.983361133166479 -1.511909253697318 14.137426386373614
-3.5605465640854637 -1.5468801799889533 14.953290353373733
-4.136015138737373 -1.5893303674025323 15.770011787631859
-4.702353138666223 -1.6424612067853304 16.592470530513875
-5.248768463298554 -1.7126551953928568 17.427038141298233
-5.7643661112902045 -1.8076279157488453 18.278589224776884
-6.237050194860896 -1.9337717541390815 19.150746027866276
-6.65732617733998 -2.090456213789694 20.044512260532983
-7.017284370747273 -2.266232616580316 20.960772461142476
-7.306955031397696 -2.4483027957701964 21.900422054452722
-7.51944684866005 -2.624559788897018 22.861557164606563
-7.652840329723267 -2.7864465633854074 23.83930910219379
-7.709325130288701 -2.9318675106235332 24.827065253989087
-7.704000952709067 -3.0723607204371337 25.81713258055298
-7.656388779293329 -3.217474954377909 26.805401238383638
-7.586602756323781 -3.3646552677323043 27.792045990236602
-7.5075101485040765 -3.5073167473133937 28.778652325930842
-7.425944394525267 -3.644147250967637 29.765883018853014
-7.356216608498158 -3.758568031033526 30.75686531987805
-7.313910386533803 -3.8426941600357303 31.75242193705369
-7.304510687198233 -3.9042167777093733 32.750483364605614
-7.339598525405986 -3.9401909614494697 33.749219917313155
-7.402240701379585 -3.954205607986993 34.747157564399245
-7.4724270182653445 -3.9594532873445356 35.74467766083008
-7.529925151317432 -3.9689097385394474 36.742978487347976
-7.555818318821569 -3.991562901220018 37.742386501172746
-7.537415033039806 -4.0322696370805255 38.74138814317741
-7.475609615860459 -4.112362379584185 39.73625760346128
-7.380352308126664 -4.261136893621264 40.72053001966339
-7.261158072547501 -4.457592905398467 41.693770878670705
-7.119838672822695 -4.719370809141465 42.64849657559802
-6.946667072483584 -5.059533298569415 43.57278066483799
-6.758999427885182 -5.417728715009347 44.487371775013635
[...]
CELL_DATA 87
SCALARS quad_param_group int 1
LOOKUP_TABLE default
3
1
3
1
2
0
3
3
3
2
0
0
0
0
0
2
0
3
1
3
0
0
2
0
2
0
0
1
3
1
0
3
1
3
1
2
1
2
1
0
1
3
3
1
3
2
2
3
3
3
2
0
1
3
3
1
0
2
3
3
2
2
0
0
3
1
1
1
3
2
3
3
0
0
1
3
2
3
2
0
0
0
0
0
2
3
1
SCALARS single_component_feature float 1
LOOKUP_TABLE default
-1.02423317305949
5.190464802524924
2.683240952554197
0.12692128811749587
3.7109274728417674
2.5163366434267367
0.12871003969385883
-1.6597209107437125
-1.8039324550666573
-2.315423343512339
1.5813088339308745
1.361060038431343
4.892983474221735
3.0257629213422823
2.278936786832651
2.692819265771937
-0.33642085370084196
-3.3149567491507956
0.4782478142712966
-1.8463340686631349
6.506976845192938
-1.62106623576124
-2.8728219832487056
-4.91972828831015
-5.26108383917804
0.8772827362573281
-0.9165526960263912
-0.402605990508485
1.7887046688401531
1.57206647517653
-5.274361456396576
-2.080318200246106
-3.131050642071454
-2.13081375416042
0.40790192286433496
2.8087884117509714
0.5338146174144054
1.5901167570203771
3.1946650621277537
-2.780169807416212
-2.7876624607368132
-3.790194752715205
-2.7470709966631413
2.981392779375309
-0.21988701563435503
-4.671815904705348
-4.841924376092671
-2.153359243778426
-3.067515296985354
-3.0553980063874016
-4.978688925691565
-0.9450555657175114
-0.6792964905801158
-1.7645282661628852
-5.106564616969731
3.435991109998587
0.13857638645783954
-1.4644874031814061
0.9083447476305027
0.06386017630939334
4.118032699346049
5.7325449577305445
1.9304820309008162
2.375313110716185
-3.699189550523493
0.5521036140156055
-3.012684907562986
3.2110910772084984
-3.030527663018385
-1.2016144220895164
-2.1438987235021614
0.49505039053325384
7.681011170519858
1.1071156923990564
0.19618468704527475
-1.0269166546352744
-1.42513668284161
-2.0957883668305533
-0.4335477299256938
3.7666247209580552
5.310030895283942
3.255569826379614
5.305376907477546
4.883922782210925
-6.103043353040724
-0.13709203522657742
2.8778262653169087
POINT_DATA 5568
SCALARS single_curvature float 1
LOOKUP_TABLE default
0.02032632386578516
0.037667061397409385
0.05674030894654024
0.07437805743879272
0.08757869575905453
0.09445526189947341
0.09472245422393952
0.08756777420150687
0.07284354847254731
0.05336151951804491
0.03352720327179094
0.018836337254078104
0.01396676329673071
0.019830183680201476
0.03385877360289183
0.051412471183052935
0.06781679172976549
0.08037958091942031
0.0871959775141373
0.08755734330846486
0.08233355447993533
0.0725252810467675
0.06088485919382178
0.048757360584703306
0.03800361032916678
0.030743832163381106
0.028601500750448292
0.03330435801129802
0.04408679346596301
0.06064660214153137
0.07600616807284365
0.08379980363045272
0.07789271861442115
0.05749760221635248
0.03484570021429492
0.024158155481435552
0.0360687695836435
0.0652909671717804
0.11025063497995559
0.15565601171596763
0.17458733273447644
0.17734575756653131
0.16162647813699696
0.13023582675054446
0.1143109892895184
0.11238520046514607
0.1226598917969115
0.14300512767247636
0.1577956761651401
0.1572743952470119
0.13946667116376776
0.11050324452497245
0.08501623439946707
0.07402893980918399
0.07552394887880666
0.08536265198936589
0.09213149495678308
0.08972507883444548
0.07990567571557765
0.06807744344113188
0.04576543874075798
0.02345343404038408
0.0011414293400101722
-0.021170575360363722
0.02898927778810126
0.03843048088806783
0.03738085165281108
0.03959177617785861
0.04972172678960917
0.06546545224665319
0.08468262811315438
0.10438198497161827
0.11571076635793742
0.11782002801082467
0.11297232085288116
0.09652170393371894
0.07390676785266072
0.04946018263682658
0.026460449256617766
0.01417510690317225
0.014002056707396866
0.023080919412443262
0.03713128566285078
0.051552959247878144
0.06740652751083583
0.08347903519365357
0.0979732181364366
0.11087436543657085
0.11618815385348322
0.11417974550126787
0.10164698362626988
0.07725949917079754
0.050832967617200533
0.03133364609143713
0.028675421628283102
0.03607678278096872
0.05541957160167697
0.06675458335926387
0.06292877518399892
0.05972625430041851
0.06985197456369462
0.09465564054762994
0.11085195278547395
0.11753172389024219
0.09797339762551392
0.08026774275727691
0.08822851741200136
0.08105282412761783
0.07507671755535122
0.05567483863916822
0.03257233720034954
0.04333727087092479
0.06637017477980392
0.09082817296453419
0.10999106724764907
0.1163233680874034
0.11023761718463532
0.10563157277913265
0.09709430947221796
0.08897029685579591
0.08132688648945793
0.06804597833438301
0.05439026610104629
0.044971743057035725
0.030422200664455973
0.01587265827187622
0.0013231158792964687
-0.013226426513283283
0.005877860279766602
0.01059705398064523
0.016240339364043715
0.028236713234326756
0.044853557544610366
0.06239234857802439
0.0779476680893768
0.0886605559403285
0.09081885156452472
0.08485500456723943
0.07258238646317668
0.05387682394577593
0.03523004284185537
0.020872856076055765
0.013054074884361251
0.014926179853023882
0.0236988928643172
0.035977102901010714
0.04825045142048814
0.057778812107257056
0.06556549676355408
0.07138327136143102
0.07577556091424514
0.07878592547575254
0.0757356923019594
0.0663604744256495
0.05148866457309488
0.0343014349078609
0.020398605650064867
0.01616259467073026
0.020856221770206487
0.028263422413353608
0.039481619136441826
0.04188254478230253
0.03450954883246017
0.027865565182305166
0.023611665419237163
0.02675572357621886
0.03853192968423153
0.05441689155509253
0.059450162850201396
0.06531262601628325
0.07305009856390603
0.06011143768892447
0.05012205555583734
0.0405093767624907
0.036887155168663414
0.05728025860765199
0.08364903355209594
0.10213405149577046
0.10821201480464142
0.10244743949766491
0.09131085726809136
0.08687668344429442
0.08467883345524982
0.08488868875091864
0.08359203756800167
0.07575247456872963
0.06445214852688713
0.055610399268134186
0.038100254551793215
0.020590109835452244
0.0030799651191112734
-0.014430179597229698
0.009634159254501371
0.020731750029628425
0.03552470458473705
0.052328997590974674
0.0680256135696076
0.0797075396871225
0.08598918103722937
0.08514246049380726
0.07627381005073587
0.06122777623301644
0.04315076239807248
0.026059078213533465
0.015721870072749833
0.014579745258748375
0.022021377431351498
0.0355813509003224
0.05053150056861638
0.0637247460982225
0.07266290288124806
0.07607967567805879
0.07490712902298553
0.06985479325343505
0.06317789578799912
0.05566752650905873
0.04662943721373501
0.037149355688076695
0.02921914260829549
0.02572954803789114
0.027763821237453513
0.037246045237748195
0.048204671675332024
0.05503080925899503
0.055366888724701184
0.044496278519653265
0.02883242673688052
0.01883279467531083
0.02142387694254298
0.03663684854456457
0.06647399031550548
0.10035071270441136
0.1154178453842349
0.12092090468163956
0.11459952252278648
0.0909533179183259
0.07812570505404393
0.07570491219450394
0.08421328519648581
0.10663699676970255
0.12676821853029527
0.13251588463140157
0.12194999544338823
0.10120241010833496
0.08192848825976018
0.07438459795903024
0.07560430039117236
0.08282899174736688
0.08729953716319659
0.08375036474832932
0.07391648582704391
0.06315223956319833
0.042680821595535705
0.022209403627873076
0.0017379856602104463
-0.018733432307452183
0.012188937981709643
0.017454925500121215
0.01995906120364688
0.02853447429566116
0.043476007413480094
0.061245319424771835
0.07893907819738777
0.09355441699320655
0.09961176105849147
0.09703527308326969
0.08763503006750463
0.06946449150524132
0.04875332876895209
0.029964385361227905
0.015971135195994288
0.012362747867529458
0.01781135162163782
0.02904217441106384
0.04219691517304181
0.053850405971757234
0.0650471126773847
0.07515580031429239
0.08381417303896965
0.09093001954931867
0.09095913801343883
0.08358220586684825
0.06841448954114918
0.04751864956821615
0.028244003511397758
0.018334646879104112
0.02051425223625277
0.028257648021809235
0.043292373801093374
0.04965983576497734
0.04402355098659001
0.0384059349898691
0.03599229038681982
0.04174597464333025
0.052311176787481053
0.06425595129929486
0.06281735874090656
0.06393553160039202
0.07381830505558679
0.06316369466653597
0.0541032489666339
0.04103921281228219
0.030316377385423206
0.047527784448869806
0.07366923930653094
0.09549521860590013
0.10768410631131206
0.10757762310278852
0.09910990918536335
0.0952308693631751
0.09088437295232742
0.08780478856343199
0.08388556278581663
0.07370502786295181
0.06126012979103654
0.05245352789299781
0.0359094976325097
0.0193654673720216
0.002821437111533494
-0.01372259314895461
0.00525788259654275
0.010061287185719121
0.01625570601962551
0.028736055437669463
0.04550713025557775
0.0628866556886339
0.07800732984230674
0.08805067277327014
0.08955336336681077
0.08302837042580559
0.07031588424657617
0.05158236211734537
0.033335323998275754
0.01974182114354581
0.012923789092480709
0.0156459074618601
0.0249151492331961
0.0373300210020613
0.04943798174753154
0.058603306674259
0.06582236854447528
0.0709337532481449
0.07461841027764203
0.0769530559718558
0.07344151119346548
0.06385764848051262
0.049180136006588875
0.032693944919807226
0.019707859297223598
0.01635141882102572
0.021416635610057178
0.02874385186968141
0.03930436080068854
0.0410266353628334
0.033323242059764085
0.02651370241115038
0.022246321239949976
0.025428063270161727
0.03774175499966356
0.0544193837471622
0.060300738136169756
0.06657021343100723
0.073732900377657
0.06032627860932315
0.050204343269912896
0.041141824377979724
0.038577239106194164
0.05938921750038975
0.08565183607269265
0.10348032575802511
0.10850181272375535
0.10178067478977826
0.09018324671690865
0.08562572998222706
0.0837341354617602
0.08445258576232806
0.0835663399205963
0.07608383401565275
0.06494896331231988
0.056045784298124735
0.03838119339462169
0.020716602491118646
0.0030520115876156023
-0.014612579315887442
0.009621961145665629
0.020711397662696713
0.035497665871854954
0.0522999799924335
0.06799953963210288
0.07968793974149271
0.08597800434172514
0.08514047983720466
0.07628046173627771
0.061241209352067505
0.04316746277972944
0.026072968502817973
0.015728153506568143
0.014575591930030144
0.022006696161909645
0.035559667898866
0.050506765610307106
0.06370041812961036
0.07264158606503922
0.07606302683588237
0.07489684730121085
0.0698520302113301
0.06318291511210133
0.05567988308119804
0.04664506554936443
0.0371627438299267
0.02922485001299704
0.02572347906573796
0.02774493544187171
0.03721675392593199
0.04816962538178865
0.05499494663715518
0.05533962827982795
0.044481671317362456
0.028826752662068952
0.018829358038735505
0.02140958110109156
0.036605101254118755
0.06642223845762563
0.10028237041575369
0.11534377756828364
0.12085051552459618
0.11454235000295615
0.09090649655989336
0.07808225859241287
0.07565868931379705
0.08416259455126271
0.10658850170347338
0.12672715350204744
0.13248472288085325
0.1219300741141665
0.10119377564320493
0.08192758153971631
0.0743876816356057
0.07560625473239937
0.08282664415989852
0.08729350540551221
0.08374221444254919
0.07390805051492225
0.06314546988865184
0.04267666379946558
0.02220785771027932
0.0017390516210930573
-0.018729754468093204
0.028597025416393272
0.05020202577476383
0.07161163525048399
0.0893408045259471
0.10066739505698132
0.10433892583803991
0.10075104381923283
0.08977386319646068
0.07160181007006873
0.049684601611117415
0.029244313190648408
0.016408293425566337
0.015010905194682496
0.0249039929060617
0.042309128255940576
0.06155486470507207
0.07829866311112217
0.09021942776029657
0.0957584468283235
0.09444320843044386
0.08705776122467164
0.07470275811150653
0.06035945136039872
0.04579793225990936
0.034485876384902345
0.02918073966070904
0.030988679146393895
0.040715215158080235
0.05670173091979797
0.07745741428837476
0.09580322074353995
0.10429346860515994
0.09411732035625549
0.06730941509277451
0.04011182058680316
0.029948139375618323
0.04907002423599657
0.08822645038329602
0.14300368517509646
0.19539141982282285
0.21670602551665966
0.21761343972687128
0.19577892056763854
0.15901027661629588
0.14048945008659897
0.13792244127606484
0.1487662213977697
0.16777346910147112
0.17929234235795824
0.17535727518080968
0.15325613330774887
0.11873592608107027
0.0887217542943099
0.07510218497288078
0.07639568732698965
0.08757448234677473
0.09556482912402896
0.09361548936945881
0.08366890087488266
0.07125498326370591
0.04779620596511925
0.024337428666532587
0.0008786513679459318
-0.022580125930640738
0.030697571051652404
0.05334684243145682
0.07528285288354576
0.09299595807597487
0.10384675062253416
0.10673280686801374
0.10221396924658713
0.09033755622609614
0.07137073658591023
0.04891413213837491
0.028381156469821513
0.01601936840225516
0.015447723145688399
0.026259356741347047
0.044393257972128286
0.06396524940876981
0.08073945538382586
0.09248981951733976
0.0977355013276152
0.09604750953475921
0.08818320791433865
0.07525929034547758
0.060306140926241855
0.0452057986500454
0.033810924096032806
0.02902757437577129
0.03180933352915215
0.04272199876767175
0.0599177925889725
0.08164341252686017
0.10070386422557456
0.10932854441752705
0.09808347901171947
0.06972261699745455
0.041461357799138385
0.031531677753785084
0.052486010848577014
0.09408142251286898
0.15118739441027623
0.20519035661157453
0.22703829181158544
0.22744812237890843
0.20409655777480498
0.16598037956417067
0.14680238922422867
0.14407019393888149
0.15508693576597793
0.17382736673582705
0.18460515874200137
0.17989540277069382
0.15676955154115424
0.12088647308657131
0.08974464937786504
0.07546167405886539
0.07667930343841309
0.08815568893823197
0.09642024626079466
0.09455832879485356
0.08456944609182425
0.07202081374271936
0.048288414509164414
0.024556015275609466
0.0008236160420545119
-0.02290878319150043
0.038785899346893984
0.06535387374617968
0.08913636263130056
0.10667232805102721
0.1156707303712075
0.11558408511868344
0.107593046565141
0.09244750197784922
0.07065737436894215
0.046361275647825724
0.02565296197316905
0.015127325320875516
0.01757234504885081
0.03162171233016474
0.05220196989726756
0.07274786531286712
0.08949389061724881
0.1005785218207424
0.10478975539882211
0.10181795152261978
0.09230126635523955
0.07739274494296083
0.060290278802512066
0.04332504804112953
0.0317778311631419
0.02908812906831338
0.03555572293094236
0.05080102441664135
0.07234152948274394
0.09751584761627156
0.11914261603638474
0.12805850393502954
0.11271108105447747
0.07862073917946667
0.04655957009023235
0.0378480131929761
0.06582708447123743
0.11652438092849082
0.18208617421779333
0.24173017482345155
0.26518745457396237
0.26336227124942807
0.2341206538002418
0.19084473627636192
0.16929497799491514
0.16618817421813872
0.17815702581027446
0.19623813713576518
0.20455024136981184
0.19714099926541526
0.17026372619876337
0.12930031819511287
0.09389502502125154
0.07707642011700047
0.07794393958236924
0.09046388728121423
0.09969534419217191
0.09809461630921769
0.08791302722880585
0.07487492726492294
0.050128875783707866
0.025382824302492793
0.0006367728212777202
-0.024109278659937353
0.004089358609960375
0.010236185660504007
0.019676391325182386
0.03431993310772234
0.05137933195722788
0.06726420559154926
0.07950160258380254
0.08558884159118181
0.08327712702315206
0.07353899024669242
0.05851246417915406
0.039951351487783573
0.02429590928775093
0.01522579951104123
0.014008432164541597
0.02128234446450134
0.03310907049328951
0.04610897198825724
0.057165870053126504
0.06420416145632693
0.06818666942398866
0.06931545224935781
0.06897968491311632
0.06748536141539115
0.06156720268989774
0.05135081356217548
0.03845920346550593
0.026404458529617907
0.01883447708183069
0.020352093579065783
0.027466963214587164
0.03434215687114852
0.04109866171989141
0.03869587636216827
0.028690100575716432
0.020807755261946996
0.01760976528837409
0.022931732082140693
0.03993611960065576
0.062028244077852575
0.07203903836482707
0.07925734329226304
0.08222378332911047
0.0656154000480874
0.054697980157246875
0.04864596290460526
0.0514571067853763
0.07397417381618865
0.09885146726168186
0.11244244492306031
0.11134739017529915
0.09921726661309586
0.0849681156978505
0.07960901024679556
0.07925177738375735
0.08269239626472373
0.08401409683039304
0.07834143603712475
0.067953324045919
0.05847732777676481
0.03986905273526623
0.021260777693767656
0.00265250265226908
-0.015955772389229496
0.004382448022364815
0.011058238093713237
0.021292825320993764
0.036320608221594435
0.053310696454952865
0.06870032145814939
0.08014965085962869
0.08525145304484745
0.0820010846566981
0.07148587132769994
0.05595247288924186
0.03751614149230387
0.022560909343957512
0.014619611201121367
0.014719799119349272
0.023012206848418527
0.03538424598804547
0.048474235775922685
0.05925064232267094
0.06576481690373089
0.06897360636679081
0.06916195486291593
0.06786903860160484
0.06546420528318952
0.05902190432049245
0.04878278130428893
0.036476533116684334
0.02558847003984136
0.019372750604337054
0.02204796122844051
0.02966531439456822
0.03645867260175487
0.04229227149980965
0.03880427061197574
0.028116393897675257
0.01993020846904228
0.017261698304820734
0.02355234463352937
0.0420742108747458
0.06569809959283744
0.07655865277757104
0.08372552815833922
0.08548524932426989
0.06797665984865285
0.056843432333089805
0.051462331427961756
0.055377836977775464
0.07811023947618377
0.10246150902143272
0.11493230201297332
0.11237403528229328
0.0989676751103465
0.08406424584363226
0.07847594735693682
0.07843114746511945
0.08248127798428323
0.08430115035785961
0.07900393677964941
0.06874501018483228
0.0590922832611392
0.04023493968711829
0.021377596113097377
0.0025202525390764646
-0.016337091034944448
0.02483782673020957
0.03310107213029687
0.032663776611231765
0.036313949468722316
0.047662414315466334
0.06404502834000324
0.08309339721998725
0.10180856259065704
0.11210541373261951
0.11329018054294622
0.10749275275741861
0.09061786316483281
0.06829618431072451
0.04492901687576251
0.02376041944297111
0.013300260673718952
0.014340182536987956
0.023914075162708073
0.03781639231749019
0.05170401661098536
0.06664160006370198
0.0815347402930918
0.09488440613861028
0.10662936736810119
0.11078971216549392
0.10743777930415674
0.09405407448309684
0.07018945518234504
0.0451664755461085
0.02776033684551661
0.026220584438670536
0.033792189370679016
0.052413565955086935
0.06286968777085351
0.05878151344442456
0.054944886607511324
0.061018231813853435
0.0796591897972889
0.09399955299171586
0.10202083169473423
0.08753055241732001
0.07537686945846087
0.08416377954125707
0.075954402209219
0.06909039892532151
0.0513074590490978
0.030949783665858738
0.04322257525112019
0.06717529077543992
0.09132363048627834
0.10932253846800463
0.11461495923474632
0.10827337895054849
0.10403080601368518
0.09644360812853317
0.08932525517444577
0.08237834893634506
0.06962707225225308
0.056096588415827014
0.04679473771266347
0.031751882875847307
0.01670902803903114
0.001666173202214974
-0.013376681634601192
0.007507731808336941
0.01220404975635058
0.016749612094297428
0.027687850155591116
0.043886889670698516
0.06164708154048484
0.0780177128928514
0.09007209466865469
0.09355508843078872
0.08873277849143894
0.07738705226605797
0.058792032886425726
0.03938258629225647
0.023497560911263805
0.013623777668219211
0.013716514006199847
0.021432504083852184
0.033401001236873576
0.04599384689918713
0.056251404243698636
0.0651914192721253
0.07245156997470752
0.07828396638597081
0.08267302273144242
0.08060192243115448
0.0717524626322143
0.05660637184180195
0.03806693769410612
0.022324025883754598
0.016255612552931866
0.02016246181525835
0.02771693195284978
0.04025745715554968
0.04401612094555182
0.03726925982691464
0.03095637906541926
0.026950264224911483
0.03037975463913141
0.041342668052334865
0.055748734737738406
0.05889821050034873
0.06364630770938014
0.07237744291153438
0.06030615640392405
0.05059361528845388
0.03984572487322467
0.033970136865864226
0.05341333582970196
0.07987259977530042
0.09960527413562566
0.10780164000147449
0.10397699763842039
0.09377042823479038
0.08956830650060273
0.08670876166805604
0.08585271394142394
0.0836987863868176
0.07510050046130848