# vtk DataFile Version 3.0
vtk output
ASCII
DATASET POLYDATA
POINTS 5568 float
0.0 0.0 0.0
0.15494979050107302 -0.008868546472279318 0.9878825392257636
0.3080308619890695 -0.019970194064804526 1.976033812550257
0.4445816876677975 -0.031100545377194443 2.9666043488000087
0.5457795262729346 -0.03675437172971566 3.9614546047225896
0.5934610221584529 -0.030053373162398058 4.960294717837957
0.5728907987343249 -0.00512901781417168 5.959772402640753
0.46896939379154445 0.04165136346429543 6.953257147124613
0.2726918084533825 0.10922355959551322 7.9314744582594265
-0.012277224059165565 0.19425383707510677 8.886232282223496
-0.3736235232507463 0.29571831733452536 9.813126996474384
-0.7940082343979389 0.41300059674578593 10.712861158085351
-1.2515693578615916 0.541184721739615 11.59275129236022
-1.7275320587482825 0.6728675413346985 12.462302407814702
-2.2101276926586158 0.8026560043418891 13.328475836754262
-2.6934371182677848 0.9271276873833814 14.195031547160784
-3.1692936481361214 1.0385527320365864 15.067467804090594
-3.6234283014503252 1.1299211043319 15.953703403242024
-4.039234474642473 1.1975536819042096 16.86063838480698
-4.40223890275521 1.2369813883109744 17.791591252109104
-4.701389316703518 1.2430155925801114 18.74577814062382
-4.9281052912103975 1.2129252404853184 19.719274128090746
-5.080988610462823 1.1485525197221307 20.705419575535444
-5.164864891779695 1.0582331244739964 21.697794089655222
-5.18794852134047 0.9526653732833508 22.69193824215769
-5.160284959329438 0.8440575062370107 23.68563792443222
-5.089144149260731 0.7430443947347903 24.677976241966824
-4.984118644709454 0.6574431674819741 25.668754760752208
-4.8559556123712575 0.5890464350154322 26.65814655581106
-4.713159023040638 0.5382649938840178 27.64659502655304
-4.559908439353159 0.5114003895505683 28.634417152056137
-4.3981072282031075 0.5174258228199503 29.621222128849574
-4.233967256115552 0.561884188929327 30.606656816307847
-4.077512018770508 0.6587276210975059 31.589582606158327
-3.936024426052592 0.8118837797019 32.5676032870176
-3.8109083161553436 1.0112422265874061 33.539509747897235
-3.700236532039683 1.2407769389536554 34.50649763407761
-3.596953000923558 1.4815610255888176 35.471565266849254
-3.496539816849571 1.7204977886165813 36.43739465951544
-3.3968681659704227 1.9418856643472835 37.40747350707912
-3.289943857547991 2.11959271848249 38.38573083272456
-3.1652612620351492 2.2352018326945124 39.371169203749
-3.0155402926413193 2.2504094287837924 40.359780533010884
-2.8328699647081934 2.138528962866254 41.33656828510387
-2.607112613310232 1.9306816092043637 42.28832092936893
-2.327853676669695 1.6350771917383022 43.20190315045302
-1.9823874791634288 1.274823456342613 44.0684309067967
-1.5871774133682537 0.9034579403869092 44.90860747005774
-1.1417491765866763 0.5401880290655146 45.72691588221431
-0.6253517657865492 0.21105576149934427 46.51748887983418
-0.026830197238946224 -0.03236556518456746 47.28071754131039
0.6254465593867978 -0.15204945073397128 48.02918985229163
1.2914113542015178 -0.14007311464361907 48.775076880896655
1.9469355861591089 -0.02011118017791555 49.520661963630786
2.5899559777458503 0.18392122587891188 50.25883237300947
3.227000385582708 0.4529619670483515 50.98118374321291
3.866492975832381 0.783803760959301 51.675152715442614
4.512954520827901 1.1856715555769433 52.32368162496875
5.1646790804679314 1.6613091604766146 52.91446412908284
5.816333508093405 2.2066010831018485 53.44172424143327
6.461544077803929 2.81023117251818 53.91005535921753
7.095245786752593 3.461606287002832 54.32734734848362
7.708560545900742 4.152809867470242 54.70955490539489
8.288795537224468 4.881979616208792 55.07237556683538
0.0 0.0 0.0
0.12834927001719865 -0.03263900960129179 0.9911917876668971
0.25660680969627936 -0.06744016683740932 1.9823218916242413
0.37450247926556934 -0.10295271880191174 2.9747126764211265
0.46702239704338544 -0.13373315409020942 3.9699476384365533
0.5172840491448092 -0.1512328385831232 4.968530397836436
0.5095104257294771 -0.1493687997132572 5.968498445395001
0.42715240223334017 -0.12563424406055562 6.964818588137171
0.25914105586693004 -0.0812305153664057 7.949603080485727
0.0035978362540692727 -0.01868075442578614 8.914375172907643
-0.33304380899519337 0.06218978114588479 9.852528869889232
-0.7371549339866772 0.16230008793666345 10.761743984772599
-1.1884850064154244 0.2770106718512529 11.646697456803437
-1.6675497656554752 0.39736532786299483 12.516186797296216
-2.1593484878210036 0.5156863358052957 13.378818906573324
-2.6541794717800764 0.6282946379736781 14.240481060550653
-3.1452327347931366 0.7297553558930894 15.105681855513017
-3.620227713758863 0.813032845440371 15.981721026835883
-4.062559161219556 0.8730704811140548 16.876560885631882
-4.456264986033275 0.903648546901706 17.795288650206587
-4.789845796762971 0.8998328817709151 18.73800243678899
-5.0545170894107745 0.8608624171329163 19.701553374588357
-5.246970479899254 0.7905250549116724 20.680335448374574
-5.368281216959779 0.6977855694742509 21.668608231018432
-5.421950334300656 0.5925151546521661 22.66160257420828
-5.414883314390674 0.48509660762615875 23.655791345511002
-5.354316350688932 0.38457179615314174 24.648880669381853
-5.251584529173347 0.2973243983198412 25.639756072457036
-5.121621752097891 0.22399955978953479 26.628559968398662
-4.976010300522309 0.1638890042581474 27.61607403223966
-4.820683442616197 0.12217281334309252 28.60305596045747
-4.65909557284433 0.11105131578971444 29.58985161946432
-4.498664641944083 0.14294571722152447 30.576383252797882
-4.350984943743553 0.23836914360959938 31.560804441332422
-4.222980439016276 0.4012716727016818 32.53910787727902
-4.1153653053895365 0.6229189047355366 33.50827839248583
-4.022750658571207 0.8841342140438264 34.469105686736825
-3.935836307889522 1.1589021187652744 35.42667996280139
-3.8502626138482343 1.4324378551959374 36.384727635823694
-3.7634642800470064 1.6874336459161308 37.347766158399146
-3.6657143417274156 1.8872184087349664 38.32271795110684
-3.547604248467006 2.0041768084517546 39.308806556966225
-3.4063461772850463 1.9870438413938376 40.298631096349716
-3.236848638852061 1.8032429677584514 41.26687064486859
-3.0280002367829213 1.5108961382189496 42.200099275061305
-2.773200341475667 1.1395398405737551 43.092943893990416
-2.4583237978242045 0.7089201757958757 43.938768619666305
-2.0879805187012956 0.26856100092641266 44.7566498168562
-1.6560496297640668 -0.1576007801537585 45.55152203522119
-1.1426143335457557 -0.5407560478492857 46.319360714524585
-0.5364506955063506 -0.8248284882852216 47.062239232523055
0.12704618637774034 -0.9626387383113759 47.79761683805494
0.7977081209254614 -0.9525733079010965 48.53931169219603
1.4503544009206284 -0.8286699249187184 49.28677459086993
2.0849127016440288 -0.6183197367593088 50.030473832044976
2.7127702029389655 -0.3467099463023389 50.75987295447082
3.3469800817876676 -0.019749157328093073 51.460497298926576
3.9950187399360253 0.37189987797802077 52.113687111070846
4.655783973986547 0.8325444988379528 52.70630489577104
5.321211818007251 1.3612198966412539 53.23328507391769
5.981695369744366 1.9481586812971838 53.701541778035576
6.629975693919994 2.582209048141958 54.123101683138934
7.256746718581562 3.2547225481631816 54.51665431612961
7.850384815394855 3.962840781803926 54.89896620084862
0.0 0.0 0.0
0.23705275547051904 0.05694125555771734 0.9698266260210352
0.456870884730766 0.11041206096753359 1.9439009881810048
0.6322523185458593 0.16777707892763752 2.9267288507222533
0.7331090887139962 0.2330403151905537 3.919486939031657
0.7361123969079788 0.30596181666748223 4.916820100398631
0.6313896155351083 0.392367834228866 5.907560802697024
0.4123825185649308 0.49976872814284246 6.877355079573916
0.07939885887435602 0.6272926561774004 7.811624596446702
-0.34529267971126376 0.7693818365645579 8.70574302365346
-0.8329762540011251 0.9222510213838855 9.565275305595529
-1.3579260300648093 1.0820890439777693 10.401265460527968
-1.8970689878788987 1.2446101026612897 11.227650223531173
-2.437862051685268 1.4071053481567164 12.052961169375406
-2.9778808481743 1.5671640010876053 12.879254656618581
-3.5072829280364117 1.7149005724459363 13.714663145515454
-4.009643016651932 1.8401921707894913 14.570195936675864
-4.468436192409659 1.9396412275963375 15.45315613225569
-4.871198710188571 2.0151345837417542 16.365342027482257
-5.209185624567499 2.067257877654945 17.305048368814617
-5.4719540953962476 2.0897408831108213 18.26964530287775
-5.64992381635139 2.073446930489734 19.253546357624174
-5.745427349259973 2.0133280210276756 20.247158350268723
-5.771018644979205 1.9151159138439988 21.24199475269173
-5.746796247678679 1.79333695232614 22.234256391575673
-5.693393971785748 1.6665916543255785 23.224753148947553
-5.619542825594591 1.5478448550747776 24.214927479999385
-5.529974923283345 1.4502285975366458 25.206112960694
-5.426772209680376 1.3838122067789445 26.19855341882925
-5.31170428580675 1.3559588848460953 27.191520470323265
-5.183769514537183 1.374763930302837 28.183124758618536
-5.039362570405239 1.4337170362059204 29.170885441066897
-4.883539595799484 1.51961271713405 30.154928698542353
-4.724808010835437 1.6300552331580154 31.136053937535365
-4.570478636138497 1.7681347598276902 32.11437724218487
-4.423636052849841 1.9228976817695973 33.09135507904972
-4.290318168740431 2.087025870586893 34.06874357878365
-4.1705670090495115 2.2571389079973483 35.046864846447164
-4.061805814728936 2.4224690071642945 36.02708776033941
-3.961314269090636 2.569964256704146 37.01103216965246
-3.861468197600527 2.696562676754903 37.99794837787312
-3.7496670408465964 2.8025001122868063 38.986016068419374
-3.6138031171680614 2.8799421827364453 39.97371223626005
-3.4410726387474586 2.9139796810482315 40.95809307238663
-3.2109139901616666 2.866584781970622 41.930091385153986
-2.9024637781829683 2.696885264834191 42.86607244298259
-2.5134102147889563 2.4485133460246797 43.75317374202194
-2.090195410300432 2.183605832352149 44.61961083636958
[...]
CELL_DATA 87
SCALARS quad_param_group int 1
LOOKUP_TABLE default
3
1
3
1
2
0
3
3
3
2
0
0
0
0
0
2
0
3
1
3
0
0
2
0
2
0
0
1
3
1
0
3
1
3
1
2
1
2
1
0
1
3
3
1
3
2
2
3
3
3
2
0
1
3
3
1
0
2
3
3
2
2
0
0
3
1
1
1
3
2
3
3
0
0
1
3
2
3
2
0
0
0
0
0
2
3
1
SCALARS single_component_feature float 1
LOOKUP_TABLE default
0.3602351056571288
-0.11291486659875763
1.7434055671114488
0.2921682754287659
0.7858221366543645
1.9654239794534307
1.1428833867220216
-0.6225986363718975
0.6412780582014298
0.18665921823290027
-2.1685230795861026
-2.5510982511613856
-0.6242469858567308
0.23921589783953556
-3.5536929561877564
-1.3593182913338235
-2.027574539077228
-0.7631238481734339
0.41761911405599006
-2.4100027233466017
-0.8361001561170391
-1.0272924099582323
-0.8407887654302773
1.7006311934873202
0.6729184696831125
-1.9109438572359814
-1.770121527905232
-0.12640233912924548
0.1953890743031344
0.4261932940072535
0.988171763089869
-0.6227216167657401
1.4153475136166915
-0.9847087779985366
-2.165436908024365
-0.3245348319424123
1.780096520422899
0.01719599799525334
0.14897871174913002
-0.7521302113254567
-1.6964705357362306
0.44651016155157186
0.9842843825629901
1.864941865022511
0.5041693396059285
4.28994242487022
2.9952319894600983
-0.28000906059631614
-0.26675560871050397
0.1209625316650908
-0.12860411982659858
-0.5216165935604308
-1.0650597865804732
-0.6239896184714666
0.37695677624590906
3.663472906944008
-0.14583268909064373
-0.8187311903234592
1.3188067237847068
0.7261256650921835
3.8119659783769726
4.039830947529119
-0.9312698986228092
-0.520992749689738
-0.5214257154494489
-1.207762458260253
0.453704835455375
0.51838384119507
-0.10726833069734987
1.62904689402207
-0.21805922184376364
0.875899124281078
0.22463439530727758
-3.094611761180247
-1.4302611708160513
-0.8534798535399328
-1.0095167792612432
-0.15203328902618404
-0.31465530461492774
-3.217424713953601
-0.3337134046503816
-0.11188230290402634
2.3284875361583923
0.7634648685542281
1.247687721215323
-0.6880784120139005
-0.49036403766558456
POINT_DATA 5568
SCALARS single_curvature float 1
LOOKUP_TABLE default
0.013912575457826147
0.027668360032922303
0.04456519817789294
0.06191314987460889
0.07678020148653467
0.08627615221003601
0.08932061603929609
0.08449477966397845
0.07150883741162185
0.053606637838183264
0.034845638763934775
0.019490221830617056
0.012646136830374497
0.01545279472169811
0.025926164371498483
0.040681892553462586
0.05552792872915932
0.06810927858446943
0.07624616077280194
0.07859903723600398
0.0753713893217658
0.06733299961872094
0.057829244947284114
0.04868415014928998
0.04024923816262314
0.0332824146564531
0.028777065443970528
0.027963340503834533
0.030375776786349867
0.037883975811356906
0.045955226187754966
0.04979346631148741
0.04861848636280917
0.03878939938957388
0.025065706111056924
0.017241409452193043
0.020042049206563516
0.03287195761454942
0.05779157665023563
0.08600902060539896
0.1016099575056829
0.11261293747934595
0.11268360944654579
0.09433796541066343
0.08128243463223528
0.07480891960179693
0.07926092954228259
0.09861753127824517
0.1175821566748548
0.12371863475815033
0.11476122554211872
0.09788771214857903
0.08199438013152217
0.07608150315659955
0.07819080327257188
0.08490367799999286
0.08864727504234872
0.0852375030136802
0.07607434827539629
0.0660687293859298
0.04535908982236234
0.02464945025879489
0.00393981069522744
-0.01676982886834001
0.00964833950408037
0.020748513910506774
0.03548720980140503
0.05227670510936588
0.06792186968119852
0.07963217845018074
0.08609955998713761
0.0856247862363849
0.07724613588909196
0.06250337100585579
0.04440294538229687
0.02710091867022495
0.016419326187990784
0.014999593925488733
0.022412334533322947
0.036175011269392175
0.05138622500729453
0.06471195281415297
0.0736351385064099
0.07698997726167045
0.07591132008871875
0.07111392203733612
0.06459484205319356
0.05690233645098702
0.04736260497574866
0.037321570224641436
0.02904931173102599
0.025795515190131346
0.02888623340310767
0.03994181422264155
0.05234087052453112
0.06021408587647703
0.06023858669664906
0.04784040427463166
0.030709942012288348
0.01982187551287795
0.023417485281594683
0.041118266032336134
0.07448547462782865
0.11179393911573432
0.1272989659785139
0.13070707969414866
0.12103298973941355
0.09460542501097231
0.08140670599413208
0.08044498106899331
0.0906601472862812
0.11390178120917703
0.13373081043163393
0.13846133748567355
0.126342655707399
0.1032622692348051
0.08217068393551384
0.07375349256842946
0.07481688385263217
0.08259612316581821
0.0875906535638741
0.08413536552501248
0.07410066074653113
0.06299345555298883
0.042351803590668875
0.021710151628348925
0.0010684996660289756
-0.019573152296290974
0.034754691014597314
0.059234417755853516
0.08175100570196803
0.09970589995938701
0.11090605788463953
0.11162110922526178
0.10272767460062034
0.08457683688571468
0.058836217564493025
0.0341240594866227
0.01666590168845167
0.010174147657545375
0.0159588836453674
0.029854064876565604
0.04603172970101432
0.05985837904770245
0.07081823752040338
0.08014814963061269
0.08666338081875533
0.088016952735126
0.08072661378319403
0.06444704086215164
0.04654549229974863
0.03326408980104223
0.027999285118466225
0.030670379279099137
0.03727433094184423
0.04156853467423543
0.040426982472832385
0.03656918471504859
0.031504464261280965
0.02520444004916905
0.021946733725534497
0.01943720456950181
0.015449856635260682
0.015867760801326857
0.017032571022487134
0.01929449681093074
0.025572120654119873
0.034817236411442964
0.05456943491222072
0.08573797174756999
0.10685428251005429
0.10343802706325707
0.08577563516860277
0.06148728973356227
0.05100445005540076
0.06139842003639091
0.07847940139109116
0.08948673775260797
0.0898300968087472
0.08901318104557465
0.08794584249230043
0.09106620551896878
0.09760963815028159
0.10087058736552693
0.09816143761113101
0.09148730467213255
0.08388467171275177
0.0798188447843566
0.05931699307352183
0.03881514136268707
0.01831328965185231
-0.002188562058982449
0.013209894191422445
0.026552868457489127
0.04314824528301613
0.06042701916186615
0.07541992992646471
0.0852568619102294
0.08881203888884832
0.08461866212645529
0.07229070270426809
0.05482098823824423
0.036122838510011544
0.020454645288560027
0.013042005788546421
0.015250345845556875
0.025313682672736412
0.039962345752952676
0.05488660446345672
0.06758359264441224
0.07582474762758232
0.07830082468633297
0.07536025800209649
0.06777829425493113
0.058705132188096414
0.049774061338100035
0.041185884728264684
0.033772716791161846
0.028723950814409416
0.027576900414790332
0.030101820397328585
0.03813163048460902
0.04683183336024047
0.05123656723280704
0.05022074266146321
0.04002218686176865
0.025810157346667313
0.01754918690146594
0.020452901169576855
0.03394734961582988
0.060034993344490646
0.08950416755222383
0.10505311481663951
0.11497534952854331
0.1137016681938227
0.09426921751002831
0.08125174188432456
0.07559590508813993
0.08085587885715884
0.10073434922807975
0.11980722756436922
0.12572882802889437
0.11631844944413017
0.09857970205278643
0.08194788788740127
0.07566171658014166
0.0776075064954171
0.08447627455398764
0.08842465953693417
0.08503848482195538
0.07575766965076368
0.06556692187600986
0.044866037055464617
0.02416515223491937
0.0034642674143741253
-0.01723661740617112
0.01899054495934664
0.035565644384219
0.05428490105017259
0.07198246153446665
0.08595577542194943
0.09314136623309995
0.0928423185320585
0.08400934070137746
0.06695461091635926
0.04653081779729281
0.027632414152478774
0.014487335561848792
0.0113191625578078
0.017779288202448392
0.030568559198826208
0.04569962543537689
0.05984056179146057
0.07161907362400066
0.07916306487155271
0.08090228308644246
0.07605165373526136
0.06524463978715128
0.05305707981303682
0.04256327106395475
0.035069795757809295
0.030943824996505997
0.029851305992210794
0.030970173358144754
0.032554919762804155
0.0367123296289439
0.04080051801702429
0.04121704124968494
0.03915742111218366
0.031634666774623336
0.020952162780042034
0.015812584913092384
0.018042019071941813
0.027008309001157936
0.04506704620282976
0.0660152413947434
0.08225273063901233
0.09987777859662603
0.10781251598589203
0.095598520296395
0.08188050772134371
0.07013452444873305
0.06969459819580595
0.08601619179914372
0.1043806216111375
0.11193607492057128
0.10580873925523576
0.0941608326419936
0.08283903430887682
0.07938446597484629
0.08262374224070404
0.0883344836264143
0.09058089261900798
0.08676377295628088
0.07826653454089758
0.0696388854089077
0.04889611964454746
0.02815335388018722
0.007410588115826983
-0.013332177648533255
0.03927396805333741
0.06591048764013989
0.08926505128274648
0.10715503833697346
0.11751382576836711
0.11642500534632702
0.10529919427005789
0.08495366507174812
0.05735839534109472
0.03199828130091794
0.015285851345398664
0.010695083682965335
0.01865756257589123
0.03404829528140729
0.05055236489916763
0.06357087706750617
0.07343493660492018
0.08204690471296902
0.08836967175775805
0.08983144652699111
0.08225159550038223
0.06492104728536884
0.04583778694307423
0.032035680029300635
0.027349083874909683
0.0316733728291885
0.040025710954305
0.044773030680340165
0.042819532748127
0.037051020953803075
0.02987973131557027
0.022270112675235876
0.018901819814977783
0.017466444763871054
0.014973326398968395
0.016548101734139148
0.01743141087324075
0.018516401125036254
0.022956458337414117
0.030614539107472187
0.0516242844012057
0.08560486782713211
0.10867066721746836
0.10614040596020263
0.0871327720693066
0.0598869239752632
0.04727019772273837
0.05638985128449982
0.07310060016985345
0.08488391739549676
0.08673083035139424
0.08823548058936419
0.089566820929374
0.09445800686714301
0.10192601256562137
0.10459357472546708
0.10040493444807429
0.09263999970622583
0.08508925069054701
0.08235742162969839
0.062025523554795375
0.04169362547989236
0.021361727404989345
0.0010298293300863293
0.024164189943565496
0.04342796947298111
0.06360383481292724
0.08148615460640066
0.09456134029286543
0.09955684632179958
0.09623810884499662
0.08397401878915192
0.06358401716323672
0.04131241313013489
0.022655465109584872
0.011709273056957181
0.011778765774856478
0.021164098381046565
0.0355377216487936
0.05056267911330807
0.06379683114792367
0.0747783667106964
0.08189549387086638
0.08332875910134525
0.07735789916302815
0.06436285747164686
0.049963160698579125
0.0383599818140528
0.03166193732773845
0.030001425855688196
0.03178755330298154
0.034300874203709385
0.035014516076991395
0.03624793298212176
0.036937394674217416
0.034668952566551926
0.0320266972699104
0.02641942195919319
0.018265763656649545
0.015292971410972009
0.017116289203461917
0.023252936952707134
0.03625426330355655
0.05199572071190436
0.069198809422814
0.09213531908990422
0.1058104171000208
0.09775419733799821
0.08294057680760616
0.06659448891419674
0.062255182698417316
0.07626261031598139
0.09417326038284615
0.10299627427806124
0.09925913690532788
0.09178582394636875
0.08427244462506814
0.08307880856604609
0.08742042233176858
0.09224807291723364
0.09291838848064739
0.08837433681481699
0.08032398502502444
0.07315965913888627
0.05243751872775303
0.03171537831661979
0.01099323790548655
-0.009728902505646689
0.006654343493862152
0.015446828592757741
0.02768892396330262
0.04367181725324014
0.05989619997413078
0.07359299152567715
0.08343783836387288
0.08754658723269276
0.08421247578305997
0.07325113045194975
0.056436566678191864
0.03762342925091261
0.023113986745591748
0.016986452492732177
0.020568754512367338
0.03264425817425657
0.04781867325053558
0.061819053600458314
0.0717706691638162
0.07660124789515481
0.07824615368870669
0.07710995866436302
0.0737525579532616
0.06746930959005049
0.05656880423628779
0.043239573205318925
0.030918815821856984
0.024747279904504194
0.02832575896435836
0.043018729671295546
0.05998690763002266
0.07244562914765015
0.07399487037210807
0.058823091231265626
0.0379852100935023
0.023740156175698315
0.028411722906785238
0.051985494892621505
0.09511473706859004
0.14287657205815468
0.15887541289524426
0.15396480486470054
0.1329765648004643
0.09670645203970656
0.08224198818661034
0.08668575017415808
0.10344817967318747
0.13161684614690633
0.15277381530311818
0.15628316015780994
0.14074062258704628
0.1104624370503368
0.08357684490667198
0.07265717477382382
0.07281820920677813
0.08172378658035707
0.08767547499348625
0.08368566986536784
0.07258873271958957
0.06073141219733978
0.04016507764877657
0.019598743100213353
-0.000967591448349861
-0.021533925996913075
0.017133337119298354
0.03270450121721045
0.050816304118652525
0.06841099951608164
0.08270871634072537
0.09071419001147309
0.0915806078452237
0.08411883563978317
0.06843635358516661
0.04883236716820005
0.029930201154135652
0.015984969493292738
0.011545331150553196
0.01678276746911417
0.028835054256013837
0.043897052992108346
0.058320838919253166
0.07038851954842101
0.07812299002714124
0.08004040116908681
0.07570717216297256
0.06582295286613164
0.054543749933032945
0.04450793146729494
0.03669618161949883
0.03159453483507009
0.02934002468378329
0.02983323067994798
0.03172386605118471
0.03703648678631002
0.04248692520765195
0.044040938185986554
0.04225967508030056
0.033954938078425805
0.02224209972720517
0.016200926054430437
0.018611421248147762
0.028832147583167506
0.04912904296353369
0.07242904363944558
0.08838896299595164
0.10379488831137053
0.10917156486310141
0.09500965410357011
0.08159721045566616
0.07167078736406579
0.07286189779495715
0.09017462753598154
0.10873140623913936
0.11579175067632437
0.10870246154467332
0.09531309997752166
0.08244541479665424
0.07812989248710457
0.0809639123799203
0.08702080514163014
0.0898196388847086
0.08619346584382793
0.07748456024671342
0.0683452268331058
0.047608356656943435
0.026871486480781068
0.006134616304618701
-0.014602253871543666
0.012180131325795504
0.02490375072597163
0.041026000418833405
0.05819018473238937
0.07336896071545734
0.08371937011714443
0.08805372855408991
0.0848362405580308
0.07353157050466434
0.05674723107691501
0.03816810368261843
0.022037050152349934
0.013753952232566924
0.015028086844926647
0.02443536173325291
0.038893661787375716
0.053921559317740765
0.06679169927927898
0.07520010463013631
0.07788093627918247
0.07540005715424006
0.06853232872235766
0.06012626652450727
0.05152439276687695
0.042695685293124196
0.03459397824980028
0.02870406215665372
0.027028137919020194
0.029717180268584303
0.03854783077233268
0.04821854834866756
0.05351096642374125
0.052750948526326835
0.041979622882424454
0.02700957645728042
0.01806869962784314
0.02113939413734042
0.035688346833999546
0.06362019518448367
0.09507083745620795
0.11056532727031906
0.11880331106732595
0.11540471451862092
0.09423467873385537
0.08123791725783125
0.07683398149830142
0.08336054342041144
0.104071184131392
0.1233212203824627
0.12891746653671088
0.11880392766367719
0.09970620362155377
0.08192409717935034
0.0750686059769771
0.07676982464502663
0.08387831344123775
0.08812684827528527
0.08475639530448355
0.0752878069377472
0.06482836424924471
0.044142057031462185
0.023455749813679663
0.002769442595897141
-0.01791686462188538
0.007415437289125527
0.012644401204661475
0.016250951832391787
0.028290721212902804
0.044473627895900585
0.06165560011451469
0.07998029751181995
0.09753866582025009
0.11000404585926044
0.11263692006017055
0.10333960646794196
0.08407010287140534
0.06032146031779928
0.03928870134247054
0.027802232464156158
0.03045897682017172
0.042670771113223364
0.05802320751395843
0.07258951490124499
0.08504373413326817
0.09818768880525193
0.10951433498834745
0.11517631329942032
0.11123576848052442
0.09398995561404054
0.06999406574092609
0.0450660623831375
0.028529686362953548
0.03245687457236552
0.05746937485413782
0.08825349474643285
0.116175896166913
0.12377359233432346
0.10002414305869842
0.06739070752790675
0.042612195173933234
0.05192463731674367
0.09680910161909947
0.17064350686259713
0.2472001614909343
0.2648634836829825
0.23444589046666833
0.17754023861536455
0.10960661161211117
0.0850331922152902
0.10085883321990044
0.13751361249786676
0.18455827769568223
0.21385925775779818
0.21716626257928479
0.19265154833821657
0.13889719466351863
0.09367708350784908
0.07618535961294245
0.07506038711141495
0.08763954868950842
0.09480387610463761
0.08679982307959608
0.07171570611698463
0.05958883662504805
0.03911840686048373
0.018647977095919407
-0.0018224526686449125
-0.022292882433209232
0.009861681280893889
0.014985368675332343
0.01623541344753667
0.026855390563461857
0.04258671760240565
0.06003411821981899
0.08007086724418218
0.10088770779340507
0.11738098216099928
0.12380287099227898
0.11715375924232402
0.09880236708130861
0.07350160846682273
0.04878103302896212
0.032789116046501504
0.0319823626839786
0.042603795767121415
0.05803456233855949
0.07410086712602125
0.08931180679365276
0.10622674440002652
0.12105312974730174
0.12882295928480147
0.12488233878006323
0.10537402538470983
0.07845263064751119
0.05030261711589457
0.030887121739205475
0.03470088241531855
0.0621824449032868
0.09644741222787959
0.12856452726839457
0.13794567787846138
0.11200493998779007
0.07622597970057376
0.04874517212004584
0.059488017753048336
0.11033546354892525
0.19139928576253903
0.2729927237977176
0.29008554798250746
0.253302294841728
0.18785152727362728
0.11293033478354085
0.08506751513259536
0.10224456063146813
0.14305043106915605
0.1949693713139516
0.2273111060156448
0.23171300175433857
0.2058838365143318
0.14670108125643674
0.0970823956341423
0.07825379997112317
0.07719215872913816
0.09080286659718918
0.09797808011691485
0.08849328226711643
0.07220468580800626
0.06034937376636055
0.039874923177970104
0.019400472589579658
-0.0010739779988107878
-0.021548428587201233
0.006647298992622493
0.015433242927920487
0.0276669682435386
0.04364691203427091
0.0598727141626509
0.073575262463602
0.0834305411220445
0.08755396523847103
0.08423630259034626
0.07328779381698876
0.056478351637006194
0.03766133024477366
0.023140034966564752
0.01699704357780559
0.02056606336144648
0.032635079009415854
0.04780869459333831
0.061811079719288405
0.0717663655450178
0.07660242951454412
0.07825686967044773
0.07713280700667836
0.07378549912526013
0.0675064376424575
0.05660112203017235
0.04326120475700551
0.030927331512565895
0.024745921719228944
0.028325618084120506
0.043030086788314124
0.06001293691555791
0.07248688011291272
0.07404143550130983
0.058860666985230105
0.03801074163813629
0.023754750844547208
0.028430174831224054
0.05202393668324459
0.095185490645566
0.14298153491007087
0.15898272538651448
0.1540450930661029
0.1330192853051496
0.09671592736876224
0.08224546043200841
0.0867056478593329
0.10348968673327559
0.13167558019649803
0.15283769407144207
0.15634371981239845
0.14079015650788357
0.11048789106429828
0.08358323444394167
0.07265575084195298
0.07281423378562521
0.08172345823777773
0.0876776835734339
0.08368542916237098
0.0725848683849636
0.060725771577821705
0.04015966538222477
0.019593559186627835
-0.0009725470089691005
-0.021538653204566036
0.012684056767359344
0.025713077929752675
0.042071901215286686
0.05929428744554716
0.07438188128109305
0.08447879274948292
0.08842689639824486
0.08472396718081093
0.07290907348378702
0.05578107864500577
0.037139397367235524
0.02123557992530001
0.01338442261990335
0.015124913190487848
0.024862072726125558
0.03941886554167006
0.05439777848448156
0.06718256684665523
0.07550679088434642
0.07808352804283589
0.07537143960267711
0.06814692510024303
0.059408647897793286
0.05064323155708283
0.041934837097367755
0.03417563894177995
0.028704549275268908
0.027293894776192762
0.02990271912473006
0.038335611458021536
0.04752355412245301
0.0523723615443372
0.051483550873981904
0.04099754426302699
0.026405250879523865
0.01780348917099136
0.02078989085001199
0.0348098843389777
0.06181811447254158
0.09227571296006899
0.10779339711045463
0.1168716399844153
0.11453757518394891
0.09424096712055521
0.08123974554924313
0.07621462354576987
0.0821081116947006
0.10240060148727899
0.12156088515583814
0.12731798700088112
0.11755488474376236
0.09913685203965779
0.08192862842129799
0.07535535823061754
0.07717706851923578
0.08416642267226136
0.08826802251515971