# vtk DataFile Version 3.0
vtk output
ASCII
DATASET POLYDATA
POINTS 5568 float
0.0 0.0 0.0
0.1047393793293767 -0.06869479012493483 0.992124331032854
0.21125093457878052 -0.14131295411201217 1.9837804664232923
0.30574839249014757 -0.21807857418071586 2.9763414318172354
0.36090111937262875 -0.29609998095181483 3.9717663846905724
0.3536417021022655 -0.36621167290964 4.969279117196632
0.2653261738530052 -0.4238768862883686 5.963701105406889
0.08977971414361628 -0.47087840560380456 6.947049618227008
-0.1615438615561725 -0.5115738094764143 7.914096847891164
-0.4762797292639859 -0.5496667185840135 8.862511453353317
-0.8481713133089396 -0.5838449228873371 9.790158207278072
-1.2731556224123777 -0.6063221312380078 10.695079812789087
-1.743991497189474 -0.617775189811819 11.57722628955595
-2.244107182876312 -0.625194810318609 12.44315310526356
-2.7547600280369147 -0.6339290422469606 13.302895732403801
-3.2657129316875437 -0.6448055501961618 14.162435627827987
-3.768275736359736 -0.661766240757598 15.026809946243162
-4.242337967969563 -0.6857866488985259 15.906973579071657
-4.65501784685319 -0.710603725376999 16.81751156854802
-4.969919755778002 -0.7357360210777678 17.76630298686309
-5.170689623029105 -0.768042788667915 18.74540856501687
-5.259959713037491 -0.8122020110840447 19.740436611910773
-5.249537701000152 -0.868251987077695 20.73881018019882
-5.150695107745647 -0.9363791859143781 21.731578444466663
-4.972092662041154 -1.0173656928923167 22.7121611039482
-4.722349427658192 -1.1096194323180015 23.676068549941807
-4.41785664287834 -1.2123512411990234 24.623027007035382
-4.083846034938319 -1.323587083505707 25.559009646388198
-3.741908009393737 -1.4383726537511365 26.49169537027921
-3.4002289760397595 -1.5526978123470405 27.424532545931164
-3.072847444037719 -1.649173710308452 28.36448665843695
-2.7752430150177 -1.6947041786729105 29.318089605306444
-2.5153706725329874 -1.660578085944043 30.28312938448996
-2.311028596220738 -1.498486004741074 31.248515562690006
-2.154027789168735 -1.184318888882705 32.184811333212465
-2.0234018964260967 -0.7353326334222386 33.06875036875326
-1.8885611856721731 -0.19673309668831362 33.900452552081745
-1.7286192782556171 0.37092621111588664 34.70803010037987
-1.547708311893121 0.935185689033391 35.513562510547246
-1.3426082411015199 1.4684870108342443 36.334247383763966
-1.1087674873908449 1.9288743818182232 37.190612942706224
-0.8526503223851506 2.2980487515969754 38.08398536364159
-0.5959082175330136 2.512370864647247 39.02640221591756
-0.34302650642724986 2.518736890056983 39.993878476044245
-0.06249313043150852 2.4003280489835954 40.94639113806406
0.26373944421091733 2.2182240026513993 41.87397424676733
0.6560700931542519 1.9977927551403354 42.76699537026913
1.0896515991228786 1.7692243385586637 43.63863953885132
1.5748753529633537 1.537016889187179 44.48163278269456
2.14412327102282 1.3298162124214514 45.27726126844202
2.799233447508616 1.2018490768144268 46.02187866608277
3.4886579304524536 1.188230207576583 46.7461081937315
4.169543859356852 1.275830770388356 47.473239882777605
4.829231086095705 1.4352751988271661 48.20767179733295
5.469184899168799 1.6672208795053525 48.940242830303774
6.0991914696610445 1.9706718860501646 49.655091910714134
6.735013095956851 2.3475844308661244 50.32864056752737
7.368797951398167 2.821577828891674 50.939907297884446
7.981468338669326 3.406435904730881 51.47148610454124
8.568288330821026 4.085716266421203 51.91219063938624
9.126718850657317 4.839063939540802 52.259498338582006
9.654993840161877 5.647949327840817 52.51762614424946
10.14821218807583 6.498919882299926 52.69813868321722
10.59336203114864 7.387703204059941 52.80725249615348
0.0 0.0 0.0
0.1269148126977036 -0.036244819560997996 0.9912512009439876
0.25376589023638807 -0.07484939654321901 1.982421464200154
0.36891542394571897 -0.11483556830274627 2.974964506568867
0.4540835812196534 -0.15122668138212317 3.9706663052392352
0.49073735467509316 -0.1756726524574626 4.969695281490505
0.4625525560492486 -0.18242374238003822 5.969275213217467
0.3554935207784652 -0.16977534470373778 6.963447422144629
0.1640508634491671 -0.1399116530063425 7.944496793416484
-0.10922925956346966 -0.09610908614068178 8.905433476815643
-0.4569364077782907 -0.03820924710511561 9.841247212406211
-0.867215982491118 0.03635136221863425 10.750153910649068
-1.3226023303990482 0.12405893241031203 11.636117034187599
-1.8042634676824256 0.21675411491488014 12.507558456184126
-2.2968677023497595 0.3076256737740018 13.373054514972567
-2.791202971753969 0.3939429997680997 14.238029636381441
-3.2801150583094243 0.4702543676045371 15.10701844342036
-3.749602551972372 0.53063454282863 15.987890583820993
-4.1801714800241285 0.5721280490678112 16.88949398173847
-4.552140164120629 0.5897440518678091 17.817572089710463
-4.852385266632481 0.5782739063942685 18.771365208882784
-5.0733960313097 0.5361804334070562 19.74572776020989
-5.214741281666172 0.46640920586532697 20.733226365783075
-5.280198130679638 0.37588256312384327 21.72696693951003
-5.275619641193438 0.27221140908282293 22.721568030025132
-5.209850279460355 0.1641116153434499 23.713530139004465
-5.093061870246977 0.05879955440529533 24.701087649883892
-4.940242163601755 -0.039046380811182044 25.68448599756528
-4.767785673121658 -0.12885938911811443 26.66540005212365
-4.586702779438837 -0.21008811180802625 27.64550763817001
-4.40221711346757 -0.2741990976334754 28.626249612670758
-4.218377804400053 -0.3048206413917038 29.608728838659502
-4.042069509402057 -0.2862407840075003 30.592888466979257
-3.8858151616908265 -0.19252830578275462 31.57614964807323
-3.7539408447238025 -0.014988619339654594 32.55138747766259
-3.6434699434020748 0.23502090528664984 33.51330816958957
-3.5449246043997285 0.5326461118143839 34.462891263689414
-3.4469669247958596 0.8458460759107088 35.40751292101931
-3.347957915651084 1.1577475033225697 36.352454567729104
-3.2441278931056137 1.4489895331357798 37.30345267839415
-3.126485225194113 1.6840040164296808 38.26829898497814
-2.9883242582574816 1.8402559265870022 39.24630557380427
-2.831627582609093 1.8648597725470257 40.233645840685305
-2.6539631908446712 1.7199683140267903 41.207012076563075
-2.4401843899545277 1.464305036459352 42.149845525690466
-2.1803542436437797 1.1313188861543002 43.05627176029158
-1.8590400516787324 0.7420109391364177 43.9195194144619
-1.4865781329996737 0.3425447841895905 44.757194118739115
-1.0568849847755881 -0.04846403415484732 45.57112034533841
-0.5459614931855619 -0.4025638232121397 46.35442777229863
0.057402445243415506 -0.6635102068235788 47.10799193193176
0.7153800543567369 -0.787026367371119 47.8508305577376
1.379751913296875 -0.774095781494474 48.59812088485104
2.0276341487138936 -0.6567300880752466 49.350765490916395
2.6588071224809786 -0.455015717552437 50.0997194213491
3.2833002024090794 -0.1876799459773492 50.833572252888416
3.914168034823605 0.14156954759511867 51.53613936641343
4.555443847152187 0.5454910464453411 52.18852939951396
5.202361642456748 1.0305444604861551 52.77693449096511
5.847710033190872 1.592620080421116 53.2942317479186
6.483733819883255 2.2192542758898437 53.74456865272515
7.104571057217807 2.8973887420432347 54.137881213614904
7.701795206619467 3.6170378229644844 54.49204009844016
8.263703304135337 4.37514204439785 54.82300426476486
0.0 0.0 0.0
0.17985959632991488 0.018425902614005413 0.9835197058121912
0.3563327781776986 0.03509334997407662 1.9676840276035361
0.5206791974758052 0.05569055297983527 2.9538716414439405
0.6670608170832434 0.08797971081785896 3.942572724546015
0.7850536749532598 0.1392342703807396 4.934263531005206
0.8632503993409875 0.2159108960621225 5.928248423933235
0.874736058953298 0.3266920313096368 6.922026879976906
0.7821463071886086 0.47825744769917095 7.9061280243837295
0.5674691578325374 0.6738779233543523 8.863022141331259
0.2419365956594562 0.9122500089494306 9.778012469025537
-0.16314090470557485 1.1794271573471804 10.652385724604677
-0.6096145656639573 1.4617090902980032 11.501490064718404
-1.0766156400236864 1.7482955567967153 12.338017526172385
-1.5556541012314795 2.031433597636977 13.1688935713878
-2.0424407858229854 2.302889537610336 13.999164850162147
-2.5317378397316608 2.5519117566327703 14.83497363658966
-3.015117397927498 2.762719602714079 15.68462312593745
-3.4847266865353896 2.9169456115204992 16.553922530205526
-3.937998472918011 3.0029263785463507 17.441138397608242
-4.370519390514816 3.0194928545877335 18.342610087520235
-4.772332656266041 2.9726316916916478 19.25713189200516
-5.134967265074444 2.8709457166623826 20.183499045447423
-5.456357304231083 2.7362147471357625 21.120812231411065
-5.734530758287483 2.5902013170398277 22.07018023576446
-5.962530412878834 2.4562657222426743 23.034585448293175
-6.127151864740053 2.364477574377927 24.016662183329018
-6.215036518717239 2.346274827204588 25.012626513810112
-6.221534539843749 2.411210983366407 26.010494777332088
-6.1420420415490495 2.5444149043674384 26.998390347797315
-5.966529448618086 2.725221072906803 27.96612195270684
-5.707597920023307 2.9406095413692137 28.90769631044657
-5.408987024296287 3.1771614775399537 29.832290661741766
-5.096696346357218 3.4256129427468 30.749212905941857
-4.784691816262003 3.676317966939377 31.665619018996903
-4.480490412452082 3.9313745390093393 32.58344669942717
-4.202600504603703 4.197209289268404 33.50654424826517
-3.9806476851087194 4.474669338915113 34.44129173650372
-3.8129421247962965 4.754183566526551 35.386673480352776
-3.669451250779754 5.022131111150778 36.339361510299526
-3.5306454117611503 5.246903517666451 37.30383561794757
-3.3640636080976396 5.3751092735532096 38.2814929131414
-3.1250912796725547 5.373960025643409 39.25251861078093
-2.7934037434480903 5.256034996997499 40.18850849637383
-2.390666313111309 5.047603591989458 41.07977664435854
-1.9328979052432997 4.71434070697326 41.90402414009551
-1.419615337853988 4.283232399453178 42.646106772422534
-0.8423049952193733 3.8497494424466714 43.3380643536889
[...]
CELL_DATA 87
SCALARS quad_param_group int 1
LOOKUP_TABLE default
3
1
3
1
2
0
3
3
3
2
0
0
0
0
0
2
0
3
1
3
0
0
2
0
2
0
0
1
3
1
0
3
1
3
1
2
1
2
1
0
1
3
3
1
3
2
2
3
3
3
2
0
1
3
3
1
0
2
3
3
2
2
0
0
3
1
1
1
3
2
3
3
0
0
1
3
2
3
2
0
0
0
0
0
2
3
1
SCALARS single_component_feature float 1
LOOKUP_TABLE default
-1.4328283824922154
-0.3319654185964773
1.7852492066914003
2.0919103141247604
0.009336014196602571
-0.7040201840717233
-0.8595372736062465
-0.4045181755469953
0.21228866273879804
-0.24185006569919343
-0.9352749877697961
0.2900289552321033
0.49895268926732705
-0.08659827950404475
-0.22764895941645164
-2.4823680453862247
-0.5184799555737575
0.21055144173948115
1.41336153956849
-2.7537913689284954
-0.6997082754137995
0.14176008359940834
0.6666665544589825
2.4875065030466503
-0.6933194680246622
-0.8890985132936892
0.04759883092942366
0.8098106991709333
0.5810037243524542
1.5350601315819423
-0.7505123223597711
-0.18870551411041775
-0.582488233389459
0.00940864118824103
0.34314500812530335
0.3544493818124291
0.8691124770931604
0.596344525320173
1.4371058760298103
1.191397745795833
1.4655146896622973
-2.25919317689376
1.2297352230950245
-0.4608449166784444
-2.4035341475513934
-0.5552166338368844
-1.2694341318186584
1.384209943355724
0.08424599169419189
0.4988207053426501
0.04110597289296283
1.3558750187200963
1.3910985457086849
0.20366197856236254
-0.6231904131436088
-1.9541935732970526
-0.5565732579868479
-0.8342912310446384
-0.3216798313881472
-0.9007080849482079
0.5566792611552338
0.006929498636307485
0.3884538688558361
1.7661261631215197
0.6762309291223653
0.25280693471976123
0.19826969743047096
1.2663846235072842
-0.3742094246104125
-0.5358015421998036
0.1329863898063687
0.5810510954263002
-2.3019682509828634
-0.22550314099861496
0.6136770372517657
-0.5041002259050467
-0.13916293847842637
-0.7058868897658892
-1.229861525658765
-0.5457156650364957
-1.2399160949473895
0.42423718263092836
-0.8346525395080686
2.869159570212425
-0.5372562578076678
0.8484549251893096
0.2778430655069313
POINT_DATA 5568
SCALARS single_curvature float 1
LOOKUP_TABLE default
0.014132383614746977
0.0298531540149405
0.04923838539125219
0.06810926873794855
0.077620136895338
0.07841360057877254
0.07317243551454346
0.0658110236123137
0.059496920605633094
0.05142222717827565
0.039292065231456445
0.02512526871436184
0.014900433476496503
0.014806430666926688
0.028840206634341937
0.05446365354885705
0.08100571221764764
0.1007747908889729
0.10865654953366866
0.10482021115675116
0.0957959018431562
0.08607973171414265
0.07562625670522925
0.06151516398923747
0.04347925621023092
0.025168244512533473
0.016599879015063893
0.02357791524926972
0.04343042094725213
0.07795088183189443
0.11199434843776489
0.13318922351747609
0.1368414132739182
0.11375613509254567
0.0790760004969759
0.05306229712541961
0.048664101881453085
0.06248544117029195
0.09739671761285561
0.13837413450752303
0.1487493544395264
0.14419841436147282
0.12502494152900187
0.08517847009281088
0.06796422004557856
0.07227483448728227
0.08306912854009503
0.10134613762494836
0.11181214506649545
0.10580612090438204
0.09290569053432064
0.08134274318763725
0.0770973485681597
0.08702000014396521
0.10255800006287372
0.11712719858515741
0.12646276014320101
0.12497922662471095
0.11439893505879163
0.10467512609793361
0.07434625450502741
0.044017382912121206
0.013688511319215002
-0.0166403602736912
0.011144971976437388
0.02365558652840989
0.03984190681841223
0.057169340279603256
0.0712795950787732
0.08004941261680334
0.08317101862028622
0.08037486465525197
0.07173404124547691
0.05806431540137851
0.041316725818788244
0.025040655744326488
0.01499460461426356
0.014334611405419037
0.02317395326342986
0.039071459028393624
0.056386787915871914
0.07120832236331177
0.08048438429300137
0.08304424637495164
0.08049366356767168
0.07404765461886051
0.06558717805936719
0.05516625134062027
0.04273175766456984
0.030452775497553368
0.022007577284350176
0.021135812238744323
0.028238280155455063
0.04459444261092719
0.06207429405337916
0.07280925502905254
0.07301057180074053
0.057738086365142036
0.0363156317607221
0.022674783794400615
0.02490078187360751
0.04138786710083039
0.07409458629612174
0.1109389174230807
0.125905741077428
0.1294937301491313
0.11985027636162073
0.09200005964287379
0.07767438911662579
0.07699270687455424
0.087040727769301
0.10927576558154349
0.12747721043259175
0.13030221356942062
0.11842105452775031
0.09859887224297705
0.0820528285692905
0.07826629057321598
0.08257698551841604
0.0917731195394507
0.09765935091755598
0.0946356399802374
0.08431559484428529
0.07249222606691436
0.04923539721014832
0.02597856835338229
0.002721739496616249
-0.020535089360149777
0.009588900334304859
0.01815385663090386
0.028996642233344506
0.044466425166620166
0.0670058692135655
0.0913647328781684
0.1107813311209351
0.11543864193781259
0.10030654264773747
0.07354496300400522
0.045646610477156166
0.02574495895452073
0.018863669816138497
0.02301424156683268
0.0349272737596219
0.049487617606500674
0.06208487911450824
0.06969135066336506
0.07141965772248458
0.06683530917477778
0.059978606831294724
0.05552142131978376
0.057938585741740996
0.07116169894230176
0.08852766322114292
0.10248524613130777
0.11010121985902611
0.10685118557026359
0.08998985840639846
0.06753290209472464
0.0409727527028318
0.01977700080154872
0.014993261366653268
0.024638580178170142
0.037867254366346616
0.04255036028244904
0.04656072292300636
0.057264106461444995
0.08032237821556963
0.11126021928368661
0.13052999941347773
0.14288073455764316
0.14067514407595627
0.12312749676405144
0.11212579483961016
0.09638983930063859
0.0919376898496638
0.10901696748773221
0.13079543925016623
0.14501239255531023
0.13733466092230287
0.11109094600990306
0.07814661425831104
0.05320006380467819
0.04539582083890181
0.04712614702984172
0.047657499451962564
0.043664447513676256
0.037604981244212264
0.038593049991903605
0.029571944743298197
0.020550839494692788
0.01152973424608738
0.002508628997481971
0.009825700013314011
0.018088634004010343
0.028271236237097697
0.043585243941503135
0.0672559001771683
0.09381936810203223
0.11554244687452025
0.12109815077907606
0.10481276068793534
0.07594299417794716
0.04622707705360027
0.02586829952105981
0.019728815251629853
0.025125636930572386
0.03887106567064471
0.0554971463837888
0.06963500786058549
0.0773675705210455
0.07762746170876376
0.07001113222921408
0.06032152842314463
0.055326844782363285
0.05983579877573747
0.07788864767737845
0.100946186991132
0.11944601099053948
0.13057341911485193
0.12857336318201742
0.1090882486656516
0.08180321724625901
0.04865774170279527
0.021690561220336933
0.01561199368649967
0.028391005221799007
0.04609831344136716
0.05232645912303284
0.0546616895978823
0.06330160181975421
0.08606512307840021
0.11862940834909376
0.13989740296444564
0.15397992695751667
0.1501342753749919
0.1300168724706591
0.11803901858742323
0.0988740277962337
0.09166794402829435
0.10785490673683583
0.1297528773097074
0.14540319549969843
0.13853875388634296
0.11210978012873819
0.07758143829181714
0.05053104683705301
0.04233338981713704
0.043607770956439314
0.043740149688536054
0.039736451386134054
0.034193984408700195
0.037800795526168454
0.03020951106742273
0.022618226608677003
0.015026942149931277
0.0074356576911855515
0.01051956872427411
0.02218619897871194
0.03742803358554253
0.054356996440143274
0.06987542855024446
0.08115894245630009
0.08690778699945928
0.08543967096170509
0.0759300154411824
0.06034809867461002
0.04199809588941285
0.025095853545360782
0.01531404720804308
0.014926748793774869
0.023101650756504954
0.03710897262809612
0.05221512175284172
0.06532900132680228
0.07403019473475711
0.07712011258764358
0.07551416640391477
0.06995152989397076
0.06276109310605006
0.05480667046012826
0.04563963999234889
0.036418781912194685
0.029081972114443733
0.026391804864606967
0.029224771685502794
0.03927475087704932
0.05047187507092842
0.05724897231674544
0.056956398984634206
0.045276903976797164
0.029114379725249426
0.01905832285223247
0.022475072386958006
0.03895479761672345
0.07019526456532084
0.10521074142483153
0.12069492242317008
0.12597242762115288
0.11876415728193324
0.0944628746244286
0.08142049615564184
0.07913613317781831
0.08790432293927296
0.11015540768989032
0.1297844003609465
0.13488912297505462
0.12354275779795752
0.10194117747871022
0.08201641486617912
0.07406805345420338
0.07528250958518146
0.08276518556823306
0.08746462414806755
0.08405374221193149
0.07425460031753431
0.0634080286051806
0.04282222845719731
0.022236428309214018
0.0016506281612307244
-0.01893517198675257
0.011989476257159055
0.025504194047607853
0.0427489120872003
0.06055485487931602
0.07311831221260823
0.07916567034398933
0.07943861701983568
0.07514619711747313
0.06737331009964884
0.055693296171880215
0.040600332537461266
0.025021945049787185
0.014800001703372026
0.014081736201102032
0.02415873669537172
0.042760140287527504
0.06291101416719751
0.07958138168278149
0.08899395328204211
0.09018573032235419
0.08597923082584023
0.07845280043829392
0.06893626944096092
0.05654238366815065
0.04138271150783276
0.02643033373339513
0.017416881854641332
0.018943150384577674
0.03058931574334175
0.053508301993379435
0.07726436216657365
0.09194852460737875
0.09300203605032781
0.07449180435496557
0.04798602214718149
0.03023823329407283
0.03070382301937221
0.04668419666851199
0.08055268169647355
0.11927989001713935
0.1332750907973766
0.1345834577934717
0.12189338111423162
0.08985184719381126
0.0741798920380111
0.07515423135827891
0.08605117028174375
0.10763248055793281
0.12371629227433549
0.1237515861640343
0.11135927907784449
0.09389506229115382
0.08133633854170987
0.08225139941542152
0.09026553059692989
0.10139010022455297
0.1085783050265634
0.10606771566261759
0.09542447315927272
0.08342443423066694
0.05738723236053256
0.03135003049039818
0.005312828620263804
-0.020724373249870573
0.012392596227995736
0.026352125254643474
0.04404700894762641
0.06206633612732135
0.07398043699443833
0.07889690485832007
0.07798509220803324
0.07305275340583495
0.0656180545066026
0.05474001723994686
0.04031012590625765
0.025027975958032446
0.014767405334029095
0.01409982133939773
0.024852061720207697
0.04476998730502689
0.06621117282245985
0.08362035198691382
0.09291725739263319
0.09329275445019126
0.08821785431322691
0.0802207613244181
0.07037500017828265
0.05738066244322551
0.04134102065923385
0.025473410415758235
0.016399086509416995
0.019023736471624555
0.032508772150356316
0.05804933334436203
0.0842342260200882
0.10046030425939244
0.10199038748340111
0.08233363850280187
0.05386212034674123
0.0343530886430275
0.033922398563173015
0.04954683751478589
0.08380579636315845
0.12321383500061368
0.1366384857060712
0.1368465821783635
0.12279364003352354
0.08898211749080251
0.07282255984903513
0.07448737653675733
0.08555969759587052
0.10665210806408702
0.12167890892308021
0.12046692813792122
0.10790143453596408
0.09156259656486046
0.08074731015659206
0.08363867296764578
0.09325829159328684
0.10517244572984935
0.11287731792193567
0.1105932169888032
0.0998933363805247
0.08810957377720818
0.06100525245325733
0.03390093112930648
0.0067966098053556245
-0.02030771151859523
0.011296352643966666
0.023995998310217228
0.04038649015838407
0.05780364831235193
0.07161312185758395
0.07985038588564089
0.08241507457665179
0.07933104994617365
0.07086597802189704
0.05759207613261836
0.04117471131913469
0.025033467773105243
0.014943900103381466
0.01425281403206214
0.023291541791088624
0.039665145463717126
0.05750172937296593
0.07268860792557139
0.08203421755166258
0.08439225109036382
0.08156807039036419
0.07491884056468119
0.06622400330976233
0.055358962955912944
0.04232399081435898
0.02946943529783225
0.020863416285383872
0.020429407934310567
0.028430593062576278
0.046095603664933205
0.06484836900590749
0.07638162468641833
0.07671820377982766
0.06075736815945148
0.0383076620842538
0.023880771829468565
0.025804746165841726
0.04223432734388399
0.0751858024009242
0.11241513998347782
0.1272313170174772
0.1304128460303042
0.12020439940266511
0.09155399512774033
0.07695448972713508
0.07659973828685838
0.08685969047377848
0.10902277702264704
0.1268581556942836
0.12916331605339074
0.1171743787167086
0.09777572250240983
0.08198363465943097
0.07910491123939695
0.08411610261977542
0.0936877945139737
0.09983109483203909
0.09690183165285375
0.08649768130204548
0.07456320237285931
0.05074631284713835
0.026929423321417387
0.003112533795696426
-0.020704355730024535
0.010215637715450643
0.0214165568455612
0.036110170561508684
0.05282072032176328
0.06917034714676736
0.08195357730334778
0.08926916933126927
0.08856976591594197
0.07851069518857529
0.06175305506365105
0.04241219861938832
0.025144071395230436
0.015565619958966955
0.01543785853596421
0.023431573085331045
0.03659834739012055
0.050603859968451514
0.06273863659032487
0.07092655303089374
0.07400855383686844
0.07268510036380305
0.06757538871145005
0.06125746015750858
0.05505354980416175
0.04816432426661808
0.04102862850215373
0.03463897104324789
0.03108705836011205
0.03137986564868976
0.037594631616389824
0.04484112416375527
0.049081025606895215
0.048545461046966804
0.03923177862278929
0.026412512252468254
0.018394650631117976
0.02236895752983874
0.03864435263752861
0.06887180189516648
0.10283863268321426
0.11852650260692588
0.12466145991923025
0.1187185332436193
0.09630906808508242
0.08398319124855906
0.08066718053997317
0.08846270553859424
0.110499576792539
0.13076192838725512
0.1370972510526921
0.12608162494100594
0.10357334360490957
0.08177488382699877
0.0714622523228393
0.07102098835336494
0.07755402988367419
0.0815891252055092
0.07800063440416481
0.06859271189729514
0.05863327710325049
0.03961861155064832
0.020603945998046144
0.0015892804454439718
-0.0174253851071582
0.01096593838381279
0.0232464170635879
0.03918074778584825
0.05639918033966903
0.07088237061554081
0.08031462063488627
0.08412879022066094
0.0816875038883721
0.07282401326440034
0.058657414368299084
0.04149456952788922
0.02505186838048321
0.015066062178354248
0.014457882387969882
0.02307794492176146
0.03841979416096941
0.055111600253882204
0.06947896667077805
0.07864175552039063
0.08140858542534109
0.07916299651740537
0.07296272926287263
0.06481143142643954
0.05498175525974415
0.04333946722852888
0.03181200534177214
0.023602225006591936
0.02221002106754751
0.02819028582533644
0.04290371643306799
0.0587710957569233
0.06849463729130685
0.0685456317244187
0.05416646893380184
0.034054712941148126
0.02137885268578607
0.02395445945319469
0.04048390096100005
0.0728639418986214
0.10922497063946981
0.1243566583278531
0.1284251963804656
0.11946117969305277
0.09258572721248033
0.07860223678600992
0.07750919839702851
0.08726390689840913
0.10955320629276988
0.12817806924367556
0.13163156270147897
0.11988794749402105
0.09956279914173846
0.08209745707650044
0.07719304988325351
0.08065244331039895
0.0893859105045339
0.09495368990174108
0.09181798375797072
0.08161610173557134
0.06998015424450481
0.04742554592772853
0.024870937610952257
0.002316329294175981
-0.020238279022600295
0.01259958532052879
0.026780957928900107
0.044696542880371476
0.0628225824140212
0.07441995851288156
0.07878741660057867
0.07730006972021311
0.0720530741246175
0.06477780373354661
0.05428394492547814
0.04017088973390895
0.025033990030357195
0.01476207543448182
0.014135323443474722
0.02524990843696326
0.045846668338377826
0.06793439730464716
0.08569166830615461
0.09489258964081186
0.09481897726957267
0.08928668606122263
0.08105891547486935
0.07107785129067001
0.05783841280352548
0.04142443878163057
0.02515282986729289
0.01608282535341657
0.019258324948860785
0.03362298203289258
0.060411656289066515
0.08773515525773898
0.10468644927062172
0.10647167566764407
0.0862965658850158
0.05690932712520088
0.03653733502310342
0.035637102545424015
0.05106191645325551
0.08548171708783771
0.12518815583957643
0.13829601322019786
0.13793683079720676
0.12320828165736536
0.08854471914450768
0.0721727962742361
0.07417674299104102
0.0852954119723134
0.10610384148992719
0.12058250106077073
0.11874989608402634
0.10611142361085803
0.09034993213605054
0.08039532947590944
0.08424446916331983
0.09465119805919708
0.10694165316479791
0.11488840392299078
0.11271463592468305
0.1020027553261458
0.09038346504756706
0.06278642199302872
0.03518937893849039
0.007592335883952056
-0.020004707170586278
0.010112669809971194
0.02114248948255998
0.03562892452198856
0.0522594690142301
0.06892607391572037
0.08228439763590022
0.0902007292672618
0.0897915126277077
0.07951554263966332
0.062300047409533016
0.042572238112046926
0.025165281620162114
0.015673777719642477
0.015664329718357375
0.02363084093617233
0.036533503341530466
0.05016383501333476
0.061936099614227254
0.0698980381868737
0.07291446340841799
0.07164220271394402
0.06668872834534113
0.06072527608538347
0.05524508028926572
0.04929126135444052
0.04300458163245035
0.03703624869801966
0.03320349243783282
0.0325296864509989
0.03726539886695006
0.04295962423941886
0.0461857304777689
0.04555415483893957
0.03717773670727322
0.025653332011068477
0.01839706875235535
0.022559979536029916
0.038723889490465985
0.06855986931582718
0.10214149737219283
0.11789634886844698
0.12433709658098688
0.1188420424955084
0.09710596924307556
0.08503772048771284
0.08130487822979206
0.08868668173385788
0.11060214780057925
0.13106797347271693
0.1378522859751364
0.1269658929922639
0.10413835354591644
0.08164958421626574
0.07045713838488342
0.06942262080587147
0.07560970124704382
0.07940196060833575
0.07575635436229237
0.06651023437307925
0.05694032890240653
0.03851702785251235
0.020093726802618166
0.0016704257527239835
-0.0167528752971702
0.00987291754766651
0.020463221139305536
0.03440091587975306
0.05082643101963768
0.06834059036587596
0.08324538459312755
0.09277715209681649
0.09313579902895798
0.08225928617705383
0.06379310675185795
0.04300534516268261
0.025229061399009406
0.015995871123185
0.01635539978024942
0.02436431963346723
0.036719663551395984
0.04947781944582051
0.060321266761459484
0.0676049610308675
0.07027679834207078
0.06898249307287341
0.06439564305409146
0.05943420774922475
0.05603761993574281
0.0527611927286781
0.04888683821793529
0.04421189857021827
0.039770470572827336
0.036531236027090665
0.037280861901117394
0.03870535869784845
0.03908098051366872
0.038157968827804686
0.03235331503600267
0.024338711115109293
0.01907498435178059
0.02368094320507663
0.03946634540241404
0.06824154609917128
0.10085080161286855
0.11677724404744289
0.1239933252591952
0.11959867206251608
0.09951509862752242
0.08807738953911701
0.08315080108043421
0.08930771414481878
0.11079853657521939
0.1317129800589318
0.13965042818558462
0.1291217375691714
0.10551119654882146
0.08124309320736504
0.06776282338195017
0.06525190856186161
0.07056353770056349
0.07373940016644981
0.06996887519047985
0.0611802140051615
0.052771114102504936
0.035897780107969145
0.019024446113433353
0.002151112118897562
-0.01472222187563823
0.01068089090487234
0.022577123689573302
0.03808167065709126
0.0551186901203944
0.07024252649745208
0.08081824836387544
0.08582752509172678
0.08399053575973843
0.07473209140038564
0.059695961848203805
0.04180450647525918
0.025076911981481875
0.015210943025116328
0.014726078903197104
0.02304214487151043
0.037521373024651236
0.053205405395918684
0.06679436118676135
0.07569599755419382
0.07870637071031993
0.07689333463749277
0.07109624002742033
0.06352234588532374
0.05481281284786329
0.0446545780369288
0.034516320628850454
0.026807698409978844
0.0245850353083822
0.02862172504625024
0.04046583079439702
0.053476331490946535
0.06140218974330944
0.061230959648379144
0.04848628020260927
0.03077348532758329
0.019729316534959948
0.022846330193077687
0.03937344308037564
0.07108017195895754
0.10660634885385929
0.12197206703748434
0.1268091244567279
0.11895479019165497
0.093697972374908
0.08030069443209321
0.07848055736883182
0.08765426521495666
0.10995126288858911
0.12922656404529784
0.13371795041388435
0.12221805968839705
0.10108307529779757
0.08207952437249791
0.07527979742246546
0.07732773213315428
0.08527980351214645
0.09030617768332413
0.08699347911417284
0.07702861629106635