# vtk DataFile Version 2.0
Vessel Segment
ASCII
DATASET POLYDATA
POINTS 64 float
-8.135661422012264 -10.84031634782753 -1.5606155116945237
-7.228479702620016 -10.99336251147333 -2.0579911924428274
-6.374464151130215 -11.009690589939048 -2.5408638152113205
-5.484014328156053 -10.918523948457803 -3.020859282303983
-4.591462462217809 -10.703864860545849 -3.453382793056483
-3.7128340713041696 -10.3497927446675 -3.8149078039122855
-2.873556823874343 -9.851034803604032 -4.088595188367138
-2.091427766923139 -9.22978692258719 -4.2638843331348255
-1.3583141823052005 -8.532266481240997 -4.332638411294887
-0.649274536864924 -7.808205446730267 -4.289195887975182
0.05560809462135297 -7.092593839798543 -4.1472485252496165
0.7609792932930975 -6.3902606742374015 -3.950835700006304
1.4537359223455244 -5.672320663707726 -3.766864727383592
2.074895689671387 -4.874796842614233 -3.692580991606861
2.3852997128690165 -3.9383438080193316 -3.8870051740927503
2.1162882014100526 -3.0504826866504304 -4.2832243320291035
1.4692666855118106 -2.320317855285091 -4.5507444719350305
0.6625611550075823 -1.722154034174615 -4.451197628853651
-0.06837813461993103 -1.3079679839102825 -3.89176954773288
-0.6168603638216165 -1.0514632790836207 -3.0788013856329246
-1.086966201527568 -0.8372041356534757 -2.2054302447781
-1.6232007929934458 -0.541491531180282 -1.3971278399701748
-2.3704015445901585 -0.00958509047883524 -1.0043291411896513
-3.104545820762121 0.6139467742736937 -1.3033467107021066
-3.6705554440720523 1.181131640046168 -1.9282915344121376
-4.12606228208725 1.7019781102794687 -2.661300618821146
-3.7505837759829035 1.8006411406809926 -2.573314836054337
-3.1722625769267867 1.2970089151585413 -1.8620151860563623
-2.548016331079568 0.7771908283097327 -1.2384624549285768
-1.8267539190226005 0.2978874954756365 -0.7132938826182206
-0.9644576546511291 -0.03125531114149565 -0.29657199061010353
0.0 0.0 0.0
0.863196141212832 0.4607864079148709 0.25512357215403775
1.5172812131051363 1.1595982897855124 0.5868692048725908
1.9747283713707684 1.9345158676837986 1.0530648281135377
2.2514005051894674 2.6970275180439787 1.6607581542171344
2.3621210215208377 3.3998724600809584 2.3828527864187437
2.3404773659176064 4.033240061402642 3.1746555126669866
2.2421236375023588 4.6225158052100195 3.994725788774669
2.1215957665440595 5.20269107917523 4.818308728526292
2.0084748653214026 5.787720153796923 5.639471547662328
1.9093123534910246 6.363046674098716 6.469322053541822
1.8195197125319218 6.882337938214748 7.336059036684599
1.734813481938292 7.2468034079167625 8.277857480556854
1.6690923126179071 7.303610362123053 9.285582796114081
1.6556394976206241 6.984646589483537 10.245593577589592
1.6948282859772381 6.420827443961482 11.08730373873927
1.742870673456143 5.761443305783462 11.856835624267912
1.748746091624512 5.081917491038854 12.610169484488683
1.6736767444410356 4.406187295387159 13.362998389553994
1.5054923065993688 3.727770187988856 14.09820746825333
1.2535096167269695 3.038405389862417 14.798455403456297
0.9370360640726709 2.3444898117361848 15.46748880111337
0.5818241243826923 1.6595327683190586 16.126351686215358
0.2238024571318883 0.9921295906405545 16.80144945052355
-0.09266131419321863 0.3454712167456702 17.516166903647928
-0.3340912498479805 -0.27292207331342383 18.283124583720156
-0.5039266561185671 -0.8449263837419818 19.103437136346482
-0.6403473289136642 -1.3433244446484571 19.976329707411974
-0.7959429815044338 -1.7285663815051624 20.901392564227027
-1.0054928290378295 -1.947819710464438 21.86915176854782
-1.254399482840519 -1.9456122626076973 22.85251508199706
-1.480358074368516 -1.7051013568303162 23.777640567200585
-1.6260473368413906 -1.1727563643819807 24.664218071818024
LINES 1 65
64 0 1 2 3 4 5 6 7 8 9 10 11 12 13 14 15 16 17 18 19 20 21 22 23 24 25 26 27 28 29 30 31 32 33 34 35 36 37 38 39 40 41 42 43 44 45 46 47 48 49 50 51 52 53 54 55 56 57 58 59 60 61 62 63
POINT_DATA 64
SCALARS MaximumInscribedSphereRadius float
LOOKUP_TABLE default
1.5499999523162842
1.3647799491882324
1.185420036315918
1.0128099918365479
1.0322699546813965
1.215809941291809
1.4018800258636475
1.530419945716858
1.4355800151824951
1.3897900581359863
1.3929699659347534
1.4486000537872314
1.4932199716567993
1.1993099451065063
0.98860102891922
1.1175700426101685
1.2072399854660034
1.2400000095367432
1.2400000095367432
1.2400000095367432
1.363569974899292
2.010849952697754
2.2640199661254883
1.8799999952316284
2.059159994125366
2.168489933013916
1.8449499607086182
1.6604199409484863
1.6057300567626953
1.726330041885376
1.9061399698257446
2.1442201137542725
2.5242600440979004
2.717449903488159
2.559760093688965
2.581279993057251
2.7308599948883057
2.6383299827575684
2.4576098918914795
2.279789924621582
2.110690116882324
1.953410029411316
1.9817299842834473
2.1725900173187256
2.4703800678253174
2.5003199577331543
2.2308900356292725
2.1700000762939453
2.0604000091552734
1.6956499814987183
1.66497004032135
1.8344800472259521
1.8600000143051147
1.8082599639892578
1.664039969444275
1.7704399824142456
2.1300699710845947
1.9411699771881104
1.6797599792480469
1.5895999670028687
1.621559977531433
1.7518600225448608
1.5537300109863281
1.2400000095367432
