# vtk DataFile Version 2.0
Vessel Segment
ASCII
DATASET POLYDATA
POINTS 64 float
-6.2419848011963905 -13.234398712008026 -2.4559850511743044
-5.349419376874955 -13.391035742140131 -2.9488329155505606
-4.49273578572855 -13.386572161481881 -3.4451605822667775
-3.632121710293828 -13.166925546514591 -3.9543495627729754
-2.8675003882869214 -12.666334328957802 -4.386535905602214
-2.236304893444276 -11.924457283734403 -4.670556010492417
-1.7332615711177353 -11.050733605507268 -4.782781593676343
-1.3075097211102427 -10.130050113586465 -4.762285762306236
-0.9182173465620921 -9.198784047451621 -4.659196665364241
-0.5403800597981293 -8.268094172962089 -4.5160927480504105
-0.16545581267674228 -7.336530590833073 -4.371020856229221
0.19401819809997445 -6.393840221584126 -4.263744490500893
0.4915491136360344 -5.4243149000462365 -4.239554039127967
0.6276196697367955 -4.424862468661943 -4.345097099152934
0.4716559196277432 -3.4549822756755924 -4.595033460964305
0.00951403420652232 -2.612941225423008 -4.920974226999413
-0.6476914657846327 -1.909090786704659 -5.23978040820388
-1.4106367543775766 -1.2993774627437378 -5.514385172127696
-2.233670132636304 -0.746693356967412 -5.730456934263542
-3.0922341662656425 -0.22706431547211264 -5.8769095787988395
-3.9729586534695795 0.2756051006362199 -5.938751344862727
-4.851627128335004 0.7684883076587099 -5.872062501084033
-5.71007669466324 1.261923001377669 -5.603727969453141
-6.118756610052742 1.5916293282216947 -4.751061224727291
-5.652432742484689 1.465892658547623 -3.8739963644984146
-4.930661012524674 1.1797813531392616 -3.219469239551758
-4.141182433110649 0.8541274947218211 -2.670629131416202
-3.3208491943107363 0.5263666730332431 -2.172304454380381
-2.481373008473231 0.22622883362807078 -1.6876429241744224
-1.6319235430126429 -0.005355556208537328 -1.1835442422901388
-0.7897205670199057 -0.10665090296733226 -0.6269553300741498
0.0 0.0 0.0
0.6720986660454826 0.34794504048433383 0.6746998795775061
1.1986870343026736 0.887170692832125 1.3537641708506392
1.601626698094064 1.5411603768148832 2.01641478730904
1.914252839712892 2.2556879989939906 2.6654271082619245
2.1615729557351426 2.9970227098474616 3.3123934801401154
2.358415281652818 3.7418044058380757 3.9726989388820404
2.512325659026464 4.4685738463905595 4.663669411520355
2.6240675830079683 5.152150717792541 5.404996210118409
2.6886157484400286 5.758779455566474 6.215582816539889
2.696323187419878 6.243143034347996 7.106842929271356
2.6390336455413035 6.55500071875096 8.070308504607537
2.517541872959756 6.663686975247939 9.071428361356073
2.3444377655378363 6.579646579352885 10.067401950456654
2.13604105144141 6.342863993466223 11.0316575973857
1.9041778538685494 5.997397901636708 11.956969412176083
1.6554267196401589 5.579824077733681 12.847587252142132
1.392816114919655 5.118894268758432 13.712439323924958
1.1184691430317364 4.637126512984595 14.562147623358351
0.8358940317766643 4.152805868065446 15.407782429768584
0.5520245009689153 3.6798293625027316 16.2592976826603
0.27908869713869355 3.2258958180114106 17.124670746944023
0.03296619317136734 2.792941090604863 18.0086415784186
-0.1697891700860502 2.3781401814636145 18.912076908916873
-0.3172951652999725 1.9774142595149533 19.832425674314635
-0.40654801688508446 1.591128014305113 20.766355598840853
-0.4425541649679704 1.2270291325524318 21.71265696065529
-0.4333999338776403 0.8997300897706367 22.672854881625437
-0.3879751346563385 0.6353233270587328 23.651974637407285
-0.3149360875012668 0.4702964507091884 24.647781321138204
-0.22031526870696386 0.47513285833854757 25.666437849668025
-0.1188011590002039 0.688143718874275 26.628755772970862
-0.01746698141456477 1.1847194396145702 27.52712021894392
LINES 1 65
64 0 1 2 3 4 5 6 7 8 9 10 11 12 13 14 15 16 17 18 19 20 21 22 23 24 25 26 27 28 29 30 31 32 33 34 35 36 37 38 39 40 41 42 43 44 45 46 47 48 49 50 51 52 53 54 55 56 57 58 59 60 61 62 63
POINT_DATA 64
SCALARS MaximumInscribedSphereRadius float
LOOKUP_TABLE default
0.9300000071525574
1.0596400499343872
1.1783100366592407
1.0891200304031372
0.8881700038909912
0.7232630252838135
0.7589309811592102
0.9469810128211975
1.126170039176941
1.3010499477386475
1.4767500162124634
1.3339899778366089
1.0040600299835205
1.1556700468063354
1.2551300525665283
1.2417399883270264
1.0468499660491943
0.9300000071525574
0.9303839802742004
0.9733949899673462
1.0696899890899658
1.3535900115966797
1.6164300441741943
1.339359998703003
1.3460500240325928
1.4910800457000732
1.3314299583435059
1.0703599452972412
1.1116000413894653
1.27360999584198
1.4344600439071655
1.300860047340393
1.1280800104141235
1.3906199932098389
1.3543399572372437
1.027999997138977
1.05417001247406
1.2110899686813354
1.2400000095367432
1.2400000095367432
1.2400000095367432
1.2400000095367432
1.2576899528503418
1.374899983406067
1.4972100257873535
1.424530029296875
1.2477999925613403
1.042099952697754
1.1181999444961548
1.4326599836349487
1.3189300298690796
0.9967120289802551
1.1077100038528442
1.2824599742889404
1.348889946937561
1.3609600067138672
1.3377900123596191
1.5462700128555298
1.8319900035858154
1.7980999946594238
1.6868699789047241
1.667799949645996
1.6192599534988403
1.5499999523162842
