# vtk DataFile Version 2.0
Vessel Segment
ASCII
DATASET POLYDATA
POINTS 64 float
-0.44415991371188834 -15.417546921330622 -3.692650222518736
-0.013773688259460647 -14.865310157717731 -4.467647143579558
0.2870278197522201 -14.082788929436246 -4.975505436012261
0.5484289401302099 -13.182116359333842 -5.371936970380765
0.7821042675044504 -12.242183223710093 -5.674656015609544
1.00857975398822 -11.286699384790305 -5.929386105708366
1.2273988335374348 -10.327009907832657 -6.17547765111076
1.394251242556366 -9.369514441212386 -6.465852367427405
1.3216412614894517 -8.459852303962283 -6.903321557089386
0.7644014020237047 -7.829013435863318 -7.456724537171543
-0.05183938050633696 -7.448942293227534 -7.92171887089686
-0.9517813324538547 -7.138303878174573 -8.271828788677428
-1.8890817991458249 -6.8324893986181365 -8.51028195269068
-2.8438391241744294 -6.512583462380161 -8.632703793416562
-3.801321830620338 -6.177981053683139 -8.628796486977908
-4.7453098774157665 -5.837133873071553 -8.482921645229839
-5.650997979829105 -5.504617757157076 -8.171087373860482
-6.469907429114126 -5.202449927862271 -7.656389393031997
-7.096602385225744 -4.961812678444204 -6.898924726569225
-7.337561238235171 -4.816675022959263 -5.929848139593827
-7.070379785655107 -4.765188337748068 -4.957430760798021
-6.437964989621073 -4.749337549286614 -4.166832462375593
-5.619967874271943 -4.717601809753189 -3.5688233020986195
-4.713524413812042 -4.639229426266489 -3.1206969615007685
-3.771372684770089 -4.488212198681165 -2.776569238176395
-2.832267025096111 -4.234387532741675 -2.489349648953002
-1.9407397956450756 -3.841975534954571 -2.2074194766380577
-1.1619181782100105 -3.2814572664545225 -1.8810522276874495
-0.5717419891804506 -2.5606585767261283 -1.48268611741239
-0.20713454246826446 -1.7357296123034103 -1.0203031944998013
-0.03657604461967278 -0.8700736345718335 -0.5202589825938377
0.0 0.0 0.0
-0.04779797963477316 0.8587329216426179 0.5379792999426328
-0.14618321700811057 1.6965658704468858 1.1015592198403836
-0.2721824057756454 2.5020842788617736 1.7053123861170798
-0.40933546442748886 3.2575243958681006 2.368470693655098
-0.5451318754217871 3.9355120314121943 3.1105428952636105
-0.6686403718274592 4.499686721111313 3.9440848309032575
-0.769148271614438 4.914688977364331 4.863775646353132
-0.8357044771370866 5.163631317179912 5.844504259764032
-0.8582378026138109 5.254728110539187 6.85430784164657
-0.8270804527541142 5.209060841845786 7.867074145924685
-0.7325926033483227 5.048309189353087 8.864095393909857
-0.5671412200475447 4.792402642981866 9.831591060392787
-0.3287461672831074 4.463459805473377 10.761124164503295
-0.02325396928439205 4.088488238107871 11.65288821098348
0.337353624300185 3.69975141904701 12.51781335927376
0.7358653634665585 3.333285821426393 13.375931806663141
1.1502661565424501 3.0274894003510093 14.249938915822456
1.5555790071118931 2.8198887804581596 15.15624757190485
1.9254918248201698 2.7411818703590196 16.097298688475473
2.2382899095665683 2.805981341906439 17.05980831779875
2.482326062575774 3.012043170234118 18.022403000447536
2.6540516408999024 3.3493494008681277 18.96330040297298
2.7553352595231515 3.80766247477324 19.862344927821244
2.7908065191101348 4.379436546106739 20.699270251485174
2.7653452686371005 5.058132307446823 21.45246669289563
2.6802694947267183 5.833554717472189 22.10050495303396
2.53174820841131 6.685737933843916 22.629894138772475
2.311347557497 7.584894695204864 23.043855330543543
2.007252539964766 8.498617093809498 23.3635019192998
1.604424236936644 9.398798302653095 23.622216529028076
1.1256411662020163 10.219182089195742 23.84404573967394
0.4885338542672827 11.013385381292586 24.093276627767317
LINES 1 65
64 0 1 2 3 4 5 6 7 8 9 10 11 12 13 14 15 16 17 18 19 20 21 22 23 24 25 26 27 28 29 30 31 32 33 34 35 36 37 38 39 40 41 42 43 44 45 46 47 48 49 50 51 52 53 54 55 56 57 58 59 60 61 62 63
POINT_DATA 64
SCALARS MaximumInscribedSphereRadius float
LOOKUP_TABLE default
0.9796000123023987
0.9464219808578491
1.0742100477218628
1.3399100303649902
1.4661099910736084
1.4803099632263184
1.2457300424575806
1.0261199474334717
1.0257200002670288
1.0056099891662598
0.9764469861984253
1.2153400182724
1.2400000095367432
1.2400000095367432
1.2400000095367432
1.3389300107955933
1.5219999551773071
1.6732499599456787
1.5941400527954102
1.5261499881744385
1.9445600509643555
1.7319600582122803
1.6069899797439575
1.6074600219726562
1.7772300243377686
1.6977200508117676
1.5499999523162842
1.5890799760818481
1.7739399671554565
1.723099946975708
1.7337499856948853
2.2400400638580322
2.1578400135040283
1.7239700555801392
1.8836899995803833
2.07738995552063
1.686710000038147
1.4180899858474731
1.329990029335022
1.7000999450683594
1.9805400371551514
2.023169994354248
1.4753899574279785
1.241189956665039
1.5039700269699097
1.7181799411773682
1.8641799688339233
1.8783600330352783
1.8740299940109253
1.8600000143051147
1.8600000143051147
1.8600000143051147
1.8600000143051147
1.8600000143051147
1.8600000143051147
1.8600000143051147
1.8600000143051147
1.981220006942749
2.312069892883301
2.186110019683838
1.8273799419403076
1.6409200429916382
1.6697299480438232
1.8600000143051147
