# vtk DataFile Version 2.0
Vessel Segment
ASCII
DATASET POLYDATA
POINTS 64 float
-9.498614604196685 -9.176241090400534 -0.9708250037758536
-8.786447395445311 -9.827706748668124 -0.907471397075817
-7.95074366321703 -10.525809921950753 -0.9057786093665685
-7.161376616340653 -11.097326994268194 -0.9800068470762668
-6.30009002213375 -11.646145240959312 -1.1027118670072469
-5.41991518259272 -12.11196444889864 -1.2737923476693203
-4.505564443882418 -12.501608203233076 -1.4837548280857111
-3.5670555762269522 -12.79993347041985 -1.727513755935633
-2.6097074104723954 -12.998636838295594 -1.999133558909874
-1.6424140067081647 -13.088838490689817 -2.292395418062954
-0.6753758636958953 -13.061622687774054 -2.5988406305897316
0.2794687471016563 -12.906545679144445 -2.9057714857965005
1.2070938186084665 -12.610775748048116 -3.1924022006410837
2.08760178274018 -12.163504072844345 -3.426665683776866
2.8971021072357956 -11.567430473077483 -3.5669175932986388
3.615096041460978 -10.849830575513389 -3.574599463922046
4.235297569978464 -10.05882624535913 -3.433607508367425
4.767874776540115 -9.240365663559382 -3.1571145924086617
5.2288376195737705 -8.420709717546021 -2.7757563849072864
5.6286765360552655 -7.605136483663652 -2.323373011161133
5.965555320028265 -6.784468413023449 -1.830741308939385
6.221719629519868 -5.941702612254417 -1.3269235200508847
6.358100787294765 -5.05921100253076 -0.8442054598040934
6.311205383724851 -4.13508850842729 -0.4268050882049057
6.015433704509905 -3.2101307398650882 -0.12847396834306293
5.469383036967899 -2.368866387190354 0.029127138157959243
4.736462045840235 -1.6679133823020478 0.07921297061425586
3.8830722107247393 -1.1184103035649002 0.07022803693334484
2.956473793414132 -0.7055534494681913 0.039774457092963254
1.9881548200061985 -0.4034131001916637 0.011047558445821067
0.998556744764739 -0.17976217303953274 -0.0037137249711790767
0.0 0.0 0.0
-1.0001031333896324 0.16983804053053092 0.021329593231932453
-1.996287819834005 0.35873459753564196 0.057802859443233705
-2.98354171135818 0.587882067346876 0.10918428987477756
-3.9550216037032633 0.8697552411431366 0.18005775704635466
-4.905953474016624 1.2143080753079751 0.28344213833215726
-5.814238308423061 1.6256800480703264 0.4425831332403612
-6.66179031847319 2.1326159372524236 0.7168855489666827
-7.262996065244295 2.7487336495440045 1.2502289501271375
-7.07043782653664 3.2708305438286467 2.102200067360678
-6.344934343794813 3.465350515039205 2.787177341162002
-5.458500983857814 3.4792001846090703 3.288433149167999
-4.523818501414637 3.401234878626819 3.6712257213174397
-3.5604286382867394 3.2382750944551533 3.948412956430529
-2.5935110567104163 2.997252102479465 4.138562713811104
-1.6398044313358489 2.6723021113540044 4.259874637083347
-0.7173572282333268 2.25782505528528 4.3431462683236735
0.15695284179040203 1.7504440764658187 4.43239502895969
0.9634665864166364 1.1545276506888635 4.588514154790245
1.6723617386860619 0.4938950928459739 4.893023018624916
2.225466396207867 -0.15907294531543675 5.442631029290795
2.5398683229693564 -0.6613491701427108 6.265417000019732
2.57884158155981 -0.8919150092964738 7.255303461344391
2.389586673572811 -0.844244816049317 8.252746693193707
2.0422271925627684 -0.5836755152947318 9.170514679187143
1.5831281249570541 -0.16440653246210146 9.972975806094427
1.0417823598503428 0.37609251268023197 10.640257578139066
0.43870874615054983 1.0122415887079996 11.152760721176021
-0.20433783181610005 1.7174450931970027 11.493058901453255
-0.8772222692955318 2.47997270280999 11.614060719825229
-1.5187188157634641 3.224907811822945 11.531968472502252
-2.158915417199369 3.9898250621497127 11.111251004894056
-2.6505214750647283 4.590481044281498 10.529709451893776
LINES 1 65
64 0 1 2 3 4 5 6 7 8 9 10 11 12 13 14 15 16 17 18 19 20 21 22 23 24 25 26 27 28 29 30 31 32 33 34 35 36 37 38 39 40 41 42 43 44 45 46 47 48 49 50 51 52 53 54 55 56 57 58 59 60 61 62 63
POINT_DATA 64
SCALARS MaximumInscribedSphereRadius float
LOOKUP_TABLE default
0.9300000071525574
1.1886399984359741
1.4428900480270386
1.459589958190918
1.3540199995040894
1.2308499813079834
1.1083199977874756
1.006469964981079
1.0686700344085693
1.3068900108337402
1.4301999807357788
1.292080044746399
1.061079978942871
0.9300000071525574
0.9371619820594788
0.9770789742469788
1.1116900444030762
1.1939599514007568
1.1131999492645264
0.9893149733543396
0.8642749786376953
0.7347790002822876
0.6247029900550842
0.6211950182914734
0.647445023059845
0.7876229882240295
0.8942909836769104
0.9300000071525574
0.9503859877586365
1.019129991531372
1.1456600427627563
1.2964099645614624
1.6404199600219727
1.9784599542617798
2.0734400749206543
2.008620023727417
1.8908400535583496
1.7628200054168701
1.6152900457382202
1.434559941291809
1.3165899515151978
1.35903000831604
1.4948400259017944
1.6697200536727905
1.8054200410842896
1.8600000143051147
1.8600000143051147
1.8600000143051147
1.8600000143051147
1.8404500484466553
1.7244199514389038
1.6438900232315063
1.7005599737167358
1.8272700309753418
1.8600000143051147
1.8581000566482544
1.7586300373077393
1.6411700248718262
1.6205300092697144
1.696720004081726
1.7844300270080566
1.7829400300979614
1.6638000011444092
1.5499999523162842
