# vtk DataFile Version 2.0
Vessel Segment
ASCII
DATASET POLYDATA
POINTS 64 float
-9.044172691289132 -17.193602927776197 -1.6254092383328507
-8.017953425039682 -16.99868972624337 -1.7073309423780259
-7.102134630429783 -16.774213075613638 -1.9596010675939401
-6.188891544601489 -16.510305988805573 -2.3276205230289113
-5.3240413227103325 -16.218370750322453 -2.771041297261171
-4.494049894354708 -15.89466548267441 -3.256122430635065
-3.6870100483453583 -15.529398535449365 -3.750725001683872
-2.8914486253575444 -15.104898266323463 -4.215533688588126
-2.099278649386459 -14.598881531436986 -4.596364558211194
-1.3156119404828799 -14.001012737078092 -4.833947231904031
-0.5560288379331653 -13.33278236779413 -4.90290417562794
0.17315176558970807 -12.631129556086266 -4.833106981369065
0.881600201775552 -11.921606329196104 -4.678196366378228
1.5821326107461746 -11.21324809877075 -4.485961608591322
2.2814821452365903 -10.503188571111293 -4.296046222022778
2.9726050255383747 -9.775349428576778 -4.148264639920076
3.6129026384618563 -8.990290600008853 -4.105500773838822
3.979368235970657 -8.076613481581445 -4.323252811045382
3.6984652121821058 -7.220399561759386 -4.77376456129484
3.056680833742627 -6.536040055254111 -5.155369664272345
2.29301498225705 -5.91937702176483 -5.410864718736507
1.4824546777437362 -5.323192057751453 -5.538900090488775
0.6630604276964471 -4.725409406047305 -5.537607643075196
-0.13303984756905535 -4.112615814797592 -5.398848870027434
-0.86571730662056 -3.4749273103869216 -5.107777254248701
-1.4715519341016259 -2.808456588402681 -4.6432404384961545
-1.85028550489036 -2.132367816444303 -3.991691194961656
-1.8974263093830859 -1.5103068123339365 -3.195341153854153
-1.6255247961895907 -1.0070459990029286 -2.35917600426312
-1.1539557684225776 -0.6178229118581556 -1.5501461955028206
-0.5885425428209375 -0.29754942958415775 -0.7710258690688587
0.0 0.0 0.0
0.5520080900981721 0.3164376748147413 0.790189661861421
1.0040432326077788 0.6857520776752224 1.6194692444372198
1.3010061628027838 1.1214753800875348 2.485597376702594
1.433587665156178 1.6086804789821478 3.365059169311272
1.4426953264621083 2.1212051917005903 4.240496867085699
1.3822897754470596 2.6391672143112883 5.110824865563077
1.292759348770834 3.149457043766049 5.983160078848307
1.1967447164112845 3.640254696349836 6.865876044793961
1.1002436185671862 4.096128576473924 7.767185350214336
0.9944662935574345 4.495218927748824 8.69385357467155
0.860139584025435 4.808613344569346 9.649177757327365
0.6788520756959184 5.007061390575236 10.627169813011758
0.4459536290964511 5.071283614399306 11.612173345264893
0.1761083362784708 4.99988036809734 12.587286043157796
-0.10312349405458211 4.802630361005408 13.542264981521626
-0.3608382731405971 4.492176548784998 14.472921280922822
-0.5673601316707071 4.081450649409675 15.377114739156976
-0.6995152477084695 3.587877930473609 16.253391817994377
-0.7473077822471759 3.0368899737163573 17.103764631960683
-0.7180302330883759 2.461938421668956 17.939124201169655
-0.6331120851075177 1.9006024459043767 18.780024329594188
-0.5212985884087897 1.3939300607406926 19.651711935699637
-0.4124736476425187 0.9845286220366788 20.573317221174836
-0.3290510048911623 0.7056540612789755 21.54482169095582
-0.2774262243407176 0.5666917033247829 22.54816598739837
-0.24539364127765415 0.550594694092447 23.561921920565503
-0.20600690983129166 0.6269153645429271 24.572770957676042
-0.12458090557745605 0.7677668029386552 25.573985308199067
0.03709118490455385 0.9567392141814688 26.55771664152941
0.32461358105435706 1.1865954076698708 27.507582197150853
0.7469180852934413 1.437218648429352 28.35222408817752
1.4225008880107337 1.7287396213143462 29.097080146101593
LINES 1 65
64 0 1 2 3 4 5 6 7 8 9 10 11 12 13 14 15 16 17 18 19 20 21 22 23 24 25 26 27 28 29 30 31 32 33 34 35 36 37 38 39 40 41 42 43 44 45 46 47 48 49 50 51 52 53 54 55 56 57 58 59 60 61 62 63
POINT_DATA 64
SCALARS MaximumInscribedSphereRadius float
LOOKUP_TABLE default
1.2400000095367432
1.2400000095367432
1.3309099674224854
1.5075900554656982
1.3979400396347046
1.213479995727539
1.0324599742889404
1.0276700258255005
1.2474499940872192
1.6275999546051025
1.7669800519943237
1.579509973526001
1.7828799486160278
1.940619945526123
1.8947499990463257
1.5411100387573242
1.1246399879455566
1.21465003490448
1.1560499668121338
1.2930200099945068
1.741569995880127
2.0589001178741455
1.7534799575805664
1.6275500059127808
1.7998299598693848
1.8725199699401855
1.8847999572753906
1.882040023803711
1.8683300018310547
1.9638999700546265
2.129849910736084
2.1700000762939453
2.414669990539551
2.8172800540924072
2.150019884109497
1.8257700204849243
2.3998100757598877
2.5155999660491943
2.4014499187469482
2.0316500663757324
2.165220022201538
2.5879299640655518
2.3629798889160156
2.118380069732666
2.2184998989105225
2.2257399559020996
2.1947999000549316
2.1964199542999268
2.3050599098205566
2.4792299270629883
2.4871699810028076
2.4855599403381348
2.5161499977111816
2.731410026550293
2.8971500396728516
2.849989891052246
2.6586499214172363
2.3720099925994873
2.042710065841675
2.2341699600219727
2.7275900840759277
2.1706700325012207
1.9633400440216064
2.1700000762939453
