# vtk DataFile Version 2.0
Vessel Segment
ASCII
DATASET POLYDATA
POINTS 64 float
0.7849896037576571 -14.188414247503834 -2.2666918550036237
1.089866313218013 -13.39710329964797 -2.8560635890461197
1.3044856097052788 -12.626855592385908 -3.4533135407149027
1.4857965117811944 -11.794325395633376 -3.9999059915553374
1.6438420706994752 -10.886096560586047 -4.421640955449922
1.7656449604324538 -9.909822391137865 -4.664913965837583
1.7958478642293951 -8.898426888150572 -4.719130741846269
1.6189095099070465 -7.905347677896629 -4.634616492446472
1.1044639473494304 -7.042959500116344 -4.529441417173291
0.29466139649211126 -6.437501193325714 -4.519822971875857
-0.6483372808341803 -6.07590610784364 -4.60107864525952
-1.6413950121256644 -5.901037118342713 -4.706530100063104
-2.653353551492823 -5.889144939298935 -4.766196970172114
-3.657375581369575 -6.019308171139538 -4.715304304594831
-4.629861949907943 -6.230256875897681 -4.5205160525526855
-5.566269889757471 -6.420781648111426 -4.181713205567739
-6.449421048345866 -6.471832090149903 -3.688978595638991
-7.15746297590116 -6.216945371319505 -3.019168784919669
-7.303269998444579 -5.538986967957347 -2.308779689916388
-6.7577920466762915 -4.795178949727175 -1.9137250674586617
-5.889888063280777 -4.283243679265908 -1.8437407997082442
-4.916756738342571 -4.035345879487932 -1.972389071263326
-3.925489390670429 -4.0056988399428874 -2.1824171941504162
-2.9352116474309127 -4.118306383209787 -2.37044230826015
-1.9359470449734322 -4.27244970471125 -2.4469210528958962
-0.9311892900627724 -4.319284029178536 -2.3330301351097242
-0.013457065922049002 -4.0634330072316205 -2.001597604003985
0.6403102623834589 -3.4361445367345693 -1.5576943457580026
0.9436100994235833 -2.5766405934030234 -1.1209701504768117
0.9011662446851217 -1.6481745202453062 -0.7214650733326512
0.5559357694346466 -0.7704361579095049 -0.35324030083466007
0.0 0.0 0.0
-0.6596813109942479 0.6755493892552846 0.37064979438579543
-1.3380141552732254 1.2976338941967391 0.7971106968495617
-1.97428884617496 1.8988084818265285 1.3095185822364175
-2.5294217178732263 2.484996630647955 1.923212495471162
-2.9817980461748665 3.032618167059833 2.6465638117036394
-3.3145333396607404 3.4838965671251514 3.490590695783001
-3.4955523430893622 3.74006910621791 4.452521044887597
-3.48557087421517 3.726861029637311 5.46411277441162
-3.2867025054611876 3.5053780485050146 6.432505079779786
-2.9317651894807866 3.189291166073004 7.328101375674566
-2.449879737635433 2.8420565985296444 8.150057586018816
-1.8661156803046006 2.4726198496321397 8.892565278182605
-1.2114839135387547 2.0547602548350596 9.54481872345519
-0.5270776936874246 1.560986454366531 10.107438121865673
0.14800622104912647 0.998725380759978 10.614646506995538
0.7961452801372427 0.4128640941456464 11.130384739668962
1.416949466650589 -0.12662893958594978 11.72356911419645
2.007531567496819 -0.5189611489882855 12.446948373528693
2.537818142175942 -0.6525239875697288 13.29815501744311
2.960429751963675 -0.4969540255097511 14.204860117724676
3.255330733669103 -0.12435278295551058 15.099927125797896
3.4319280703628623 0.3790369562634083 15.962346258892792
3.5103976588035097 0.9566972382833301 16.792330421538523
3.512486982769192 1.583014958394176 17.59026006983664
3.4540517724629605 2.2524026552124266 18.350270908856945
3.3396270697153816 2.966748950083704 19.061308095383126
3.160752821607928 3.726866776085789 19.708593412213396
2.9021870394855833 4.529487116995148 20.27206021010463
2.552765096761924 5.366604388909195 20.724966670521884
2.114377921469667 6.2226633635603195 21.039952800806343
1.6092152094409191 7.067890897816529 21.20018841167676
1.0311915822282973 7.9234472640655005 21.198741058995545
LINES 1 65
64 0 1 2 3 4 5 6 7 8 9 10 11 12 13 14 15 16 17 18 19 20 21 22 23 24 25 26 27 28 29 30 31 32 33 34 35 36 37 38 39 40 41 42 43 44 45 46 47 48 49 50 51 52 53 54 55 56 57 58 59 60 61 62 63
POINT_DATA 64
SCALARS MaximumInscribedSphereRadius float
LOOKUP_TABLE default
0.9300000071525574
0.9694430232048035
0.7630299925804138
1.0486199855804443
1.6715199947357178
1.3396799564361572
1.0273499488830566
0.7946460247039795
0.9709169864654541
1.1902999877929688
1.1510599851608276
1.2270499467849731
1.2400000095367432
1.2400000095367432
1.2400000095367432
1.2973599433898926
1.5948200225830078
2.031290054321289
1.8428499698638916
1.5828900337219238
1.5737099647521973
1.7628799676895142
1.8600000143051147
1.8600000143051147
1.86913001537323
2.356719970703125
2.0249199867248535
2.112420082092285
2.1700000762939453
2.1700000762939453
2.3025999069213867
2.3908801078796387
2.2357800006866455
2.3976199626922607
2.3286399841308594
2.098069906234741
1.8742300271987915
2.3428900241851807
1.9271299839019775
1.566580057144165
1.550510048866272
1.6315900087356567
2.0742099285125732
1.967229962348938
1.7257299423217773
1.6219799518585205
1.8501700162887573
2.290750026702881
2.4902799129486084
2.4804799556732178
2.4362800121307373
2.200429916381836
1.7735400199890137
1.7096400260925293
1.9010299444198608
1.989009976387024
2.3122100830078125
2.3480100631713867
2.1816298961639404
2.199850082397461
2.403630018234253
2.6424200534820557
2.6189699172973633
2.1700000762939453
