# vtk DataFile Version 2.0
Vessel Segment
ASCII
DATASET POLYDATA
POINTS 64 float
-8.615678174680827 -14.373122183851612 -4.413698337813126
-7.706965122197148 -14.162024535968365 -4.889729830932032
-6.8568481825193315 -13.886363119750838 -5.272992647734059
-5.955385184128583 -13.516415993908698 -5.591301458437156
-5.0667968857410095 -13.066304966263473 -5.774062245152012
-4.191464664075674 -12.55472162644883 -5.800274447290765
-3.3408993756868623 -12.016245449601062 -5.675729610161132
-2.513205115142269 -11.479847474226766 -5.438256828658738
-1.6970866037384027 -10.960891260192122 -5.131696804617939
-0.879989614822367 -10.463359195357201 -4.793715962099452
-0.05283511443790684 -9.982225148108537 -4.4564297107526585
0.788676981833642 -9.504847355912144 -4.151133739995676
1.642279039639488 -9.007488190002004 -3.9201117222607813
2.483292183989556 -8.444720070924076 -3.8541051202021457
3.135500082034156 -7.7525140587899015 -4.174208487111005
3.2606663589110902 -7.042648370482313 -4.8839359686827795
2.991041793589668 -6.410950770965843 -5.630402304668657
2.5254865606312977 -5.802360164067569 -6.2946648237455225
1.9333027546373407 -5.184626875528561 -6.838958159157557
1.249934881089014 -4.544163923782567 -7.227806354272731
0.5075397599307566 -3.8819862198765667 -7.423934448435163
-0.252877474745469 -3.2119893930566374 -7.398160852931269
-0.9828338291459128 -2.5568820473654896 -7.141484588746983
-1.6314403058860591 -1.9402754501788795 -6.665221274300158
-2.14749998494495 -1.384171046150339 -5.99291956452354
-2.473628436476589 -0.9121336885489493 -5.157477173540754
-2.5507947798574646 -0.5512107576615837 -4.213858519079296
-2.355015300218181 -0.31626798694387415 -3.2478568654015922
-1.9314488407007182 -0.18717847846294455 -2.335643653682411
-1.3584308686271944 -0.1194217664884455 -1.5013899197180192
-0.6996028397739542 -0.06920964729410962 -0.7315629700868861
0.0 0.0 0.0
0.7037804895399686 0.12062047409751497 0.7207181385305486
1.3726581054423403 0.3239225132468795 1.4557311465927227
1.9574580504743246 0.6376320489473445 2.222663920333218
2.402380315680035 1.0740757932813634 3.0224686895313737
2.673938382377737 1.6145454559561894 3.8363567870453297
2.7864955165931233 2.217818737069927 4.644068313938025
2.7832806300404096 2.846482411031624 5.440269882657093
2.708899709382336 3.4751560690903958 6.233110565178079
2.5981751442644985 4.085284533618706 7.0360611610171375
2.47384474745637 4.659227369071266 7.863435018050512
2.3458835240443716 5.17699468357345 8.72639820150306
2.210939358217036 5.617856336296617 9.630101658609465
2.055021412141395 5.962854312887569 10.571260397534497
1.8602729710329342 6.199196487133171 11.538256012152068
1.6118119735023753 6.323559242228144 12.513848784667788
1.3025230731500332 6.340701512550585 13.479784656679469
0.9390952399537839 6.25988799979602 14.423441630296798
0.5437992994104264 6.089824180685626 15.34216226359682
0.14686874620230383 5.836031553894412 16.240638417757957
-0.22042469001058784 5.505277943959535 17.126565539107332
-0.5309592927706963 5.110594199691845 18.008030277920593
-0.7656542530983067 4.672325984575493 18.892397930112082
-0.9154440501440491 4.218683714666874 19.787315982722507
-0.9792086633580495 3.7824507921634765 20.701066954166823
-0.9615872031268332 3.40060081130367 21.64069736359713
-0.8702653561727834 3.113312909692774 22.609167490174517
-0.7165109688268244 2.959524195980982 23.599883167842652
-0.5178300417000818 2.9615958700429332 24.594448690177966
-0.29783815787165613 3.110618265437062 25.571811133048698
-0.07938117356989602 3.3786908181968305 26.537233761740197
0.10846257140090873 3.7018155120724128 27.434761427187063
0.2655493536164769 4.098893189874831 28.391115140441222
LINES 1 65
64 0 1 2 3 4 5 6 7 8 9 10 11 12 13 14 15 16 17 18 19 20 21 22 23 24 25 26 27 28 29 30 31 32 33 34 35 36 37 38 39 40 41 42 43 44 45 46 47 48 49 50 51 52 53 54 55 56 57 58 59 60 61 62 63
POINT_DATA 64
SCALARS MaximumInscribedSphereRadius float
LOOKUP_TABLE default
1.2400000095367432
1.2400000095367432
1.2663700580596924
1.3947700262069702
1.5731300115585327
1.7506500482559204
1.7924400568008423
1.6376899480819702
1.8426599502563477
2.19064998626709
2.0225000381469727
1.541159987449646
1.4606000185012817
1.5647399425506592
1.6764299869537354
1.8163599967956543
1.8600000143051147
1.8216899633407593
1.648800015449524
1.7000199556350708
2.0336899757385254
2.0778300762176514
1.9524400234222412
2.014050006866455
2.209779977798462
2.5302200317382812
2.6841800212860107
2.312839984893799
2.0548899173736572
1.8792999982833862
1.8720200061798096
1.9518300294876099
2.2271599769592285
2.407360076904297
2.2607200145721436
2.1780200004577637
2.1709799766540527
2.0356900691986084
1.8649100065231323
1.8600000143051147
1.900570034980774
2.0364298820495605
2.1723999977111816
2.185839891433716
2.189310073852539
2.17618989944458
2.2738699913024902
2.4674301147460938
2.7494399547576904
2.992680072784424
2.7961199283599854
2.505389928817749
2.487380027770996
2.422060012817383
2.2734899520874023
2.1874101161956787
2.195970058441162
2.3209500312805176
2.46235990524292
2.4800000190734863
2.4800000190734863
2.4800000190734863
2.4800000190734863
2.4800000190734863
