# vtk DataFile Version 2.0
Vessel Segment
ASCII
DATASET POLYDATA
POINTS 64 float
-9.911127582218274 -14.71847753787401 -1.6440499669307054
-9.111772025557629 -14.097322946508092 -1.9068354238090863
-8.243662147042546 -13.68378983538775 -2.063207444984931
-7.2732365804303285 -13.373258522595028 -2.1730838700604354
-6.284870648560858 -13.165169170456853 -2.2493264538699145
-5.28636054015391 -13.001610130369984 -2.3258444256443136
-4.289172022764599 -12.842047064932318 -2.4238898972418075
-3.3027066973261374 -12.647090061164374 -2.558585048015258
-2.3419209453312444 -12.375863839673103 -2.738626326673001
-1.4304811991902702 -11.98814720120421 -2.9571221289952425
-0.591708603628451 -11.460318056281206 -3.1728365266765413
0.16908971141790485 -10.802608068990512 -3.303611254686371
0.8681532905233169 -10.070223914333617 -3.251682448601663
1.5323256773904803 -9.35248778998088 -2.983620392888109
2.184371305970328 -8.694370269009033 -2.570102386464198
2.8357101644682796 -8.066541459571917 -2.1108222150262783
3.4816960525415204 -7.407142761478016 -1.6899769894923051
4.082987671836304 -6.646849042125016 -1.3925425658532986
4.5301786068254675 -5.741545258247624 -1.3162578521288608
4.664083097621788 -4.75614153845813 -1.5025598794144006
4.431938940132041 -3.8364246428317985 -1.8573213756804101
3.9105741364928845 -3.062215610271245 -2.25233961520115
3.197031967818439 -2.4376227527188674 -2.6115672502897667
2.3644933633674836 -1.9359910460561847 -2.901343199568798
1.4609351342058892 -1.5230136577426696 -3.106420892396303
0.5185452928054172 -1.163462109519441 -3.213218445947694
-0.4358485889273306 -0.8190183871528264 -3.1899220742579946
-1.3454547442247171 -0.4435266549548011 -2.9523894571193336
-1.8862261467889072 -0.010170999827820926 -2.248883926398283
-1.5127981581405963 0.1956815421101095 -1.3246414327639522
-0.7936535289281825 0.15521804498036784 -0.6124586118445888
0.0 0.0 0.0
0.8082611762640998 -0.23087168455382143 0.5680589627509279
1.595593615258329 -0.5114931642522107 1.143194212661359
2.3185987007844147 -0.8109114904671318 1.7885992170224467
2.894791186595031 -1.0604156929831343 2.5843963691606815
3.210448997038628 -1.1338109444699858 3.5432877262929177
3.284187753007706 -0.9732967671285387 4.541423836838209
3.2575764146592894 -0.6375777246252445 5.498170863496811
3.2255593874377357 -0.18415462988658582 6.405123416891431
3.2283146162108447 0.35120037331432924 7.266756896280222
3.273984256164306 0.9417784734076371 8.090520857931237
3.3490018868239 1.5628112978153343 8.88927358250627
3.4226395611030505 2.1878243096040686 9.68513735801403
3.446143104366817 2.7796206591310333 10.508730470745444
3.3517019697122086 3.275405279297267 11.388168905861077
3.074379982936741 3.581477447320563 12.313325955153132
2.6193253944546715 3.642967620869083 13.216845578297441
2.06209358444145 3.5048564139638607 14.052920664680467
1.4713842635402727 3.2437843250472063 14.835393476270633
0.8888535886660432 2.909459950579781 15.595730952891623
0.3447826608019486 2.5250627984567284 16.360965026039523
-0.13461597334458686 2.09841466890159 17.146639289853297
-0.5295329534887997 1.6299835410124286 17.955179173518705
-0.8339407834311535 1.1220605523170324 18.778928153225596
-1.0606137293398525 0.5830537343272105 19.60799800133074
-1.2401482977440426 0.028899953191116812 20.438767974157994
-1.41306679237724 -0.5193705488002267 21.274726599645064
-1.6197017293362084 -1.0384100491278059 22.12161143696654
-1.89085511603957 -1.5056455180523796 22.98044908363128
-2.236442596227751 -1.9046332573877942 23.84452415015774
-2.6554168278868384 -2.232440375639416 24.72198164792991
-3.0959437323553534 -2.4811708574689355 25.55272885001011
-3.60230156893189 -2.6772106005288228 26.447492364156716
LINES 1 65
64 0 1 2 3 4 5 6 7 8 9 10 11 12 13 14 15 16 17 18 19 20 21 22 23 24 25 26 27 28 29 30 31 32 33 34 35 36 37 38 39 40 41 42 43 44 45 46 47 48 49 50 51 52 53 54 55 56 57 58 59 60 61 62 63
POINT_DATA 64
SCALARS MaximumInscribedSphereRadius float
LOOKUP_TABLE default
0.9796000123023987
0.7622990012168884
0.7955600023269653
1.1524900197982788
1.2400000095367432
1.189710021018982
1.0228999853134155
1.0478999614715576
1.2431199550628662
1.446310043334961
1.329069972038269
1.0569599866867065
1.2115000486373901
1.4229999780654907
1.499500036239624
1.3346099853515625
1.1114200353622437
1.0018199682235718
1.1108900308609009
1.1072399616241455
1.0283900499343872
1.0082600116729736
1.1636500358581543
1.1538000106811523
1.0516300201416016
1.1688599586486816
1.3406000137329102
1.2973500490188599
1.0985699892044067
1.3391900062561035
1.1844199895858765
1.016800045967102
1.174880027770996
1.2400000095367432
1.3674299716949463
1.7742999792099
1.8572399616241455
1.7369699478149414
1.579800009727478
1.5499999523162842
1.6451400518417358
1.784909963607788
1.5624200105667114
1.3481600284576416
1.4679800271987915
1.4178099632263184
1.2882399559020996
1.484660029411316
1.5499999523162842
1.4934799671173096
1.3231899738311768
1.2535300254821777
1.2680599689483643
1.254580020904541
1.2492300271987915
1.2680000066757202
1.2569899559020996
1.1646499633789062
0.9761300086975098
1.0870800018310547
1.247879981994629
1.295050024986267
1.159369945526123
0.9300000071525574
