# vtk DataFile Version 2.0
Vessel Segment
ASCII
DATASET POLYDATA
POINTS 64 float
-0.4567396199486058 -13.99331242308879 -2.416914602327847
0.10799549741504708 -13.333546647386532 -2.9903870531125927
0.6262097123124815 -12.77519919301325 -3.620151741369596
1.165879033016753 -12.120674652101176 -4.172974908092108
1.6693382706395594 -11.290090987446964 -4.452705232989318
1.9712506561690497 -10.327578747748742 -4.389833620662122
1.9236728714489555 -9.33725557703549 -4.192156814185901
1.5029828196727095 -8.421456253681809 -4.116964144573239
0.8533860602445053 -7.654622239064259 -4.244067936567174
0.1147185660668103 -7.010112489432914 -4.503835255827236
-0.6665565964265224 -6.443234131828885 -4.815978611084415
-1.4906516575938789 -5.933243697240912 -5.115746566639154
-2.3721593942576065 -5.484568471334006 -5.339493094048906
-3.3132604042732265 -5.118828248916228 -5.431124798676961
-4.286019285975737 -4.835692435193426 -5.385478333967401
-5.257759002009412 -4.583019812530075 -5.240506892690525
-6.201438084202077 -4.281727079610437 -5.02264426873749
-7.059629947554577 -3.8364349310421915 -4.720592220407218
-7.639926673255996 -3.144214311790196 -4.273342891052937
-7.521552431543313 -2.3515528807815618 -3.68377289684015
-6.762561740763371 -1.8772375746196222 -3.2255326989608846
-5.774403047036108 -1.7769655503210104 -3.042581009246632
-4.778242418563005 -1.9521754047130415 -3.093649889488413
-3.830834708451237 -2.279140248966446 -3.2501719802643034
-2.898245652030523 -2.6545586149459686 -3.386319987656991
-1.936738117480948 -2.974514359017217 -3.3859265069893723
-0.9635573485435744 -3.0839502353846546 -3.136835666218988
-0.1382500732926318 -2.824721742494252 -2.6198864688298533
0.3479912211378868 -2.225518060119 -1.9690995731919392
0.46783202773586013 -1.4701409896334001 -1.3064690299210873
0.3074052801069101 -0.7068558886862456 -0.6593848685664425
0.0 0.0 0.0
-0.2916110773906107 0.6531962935160723 0.7190912463520114
-0.44966623313313103 1.2800046239842582 1.5002833876290802
-0.4895585846451681 1.9097251340259964 2.2946597211001105
-0.5079489162986677 2.561301579714027 3.072164156236751
-0.5724629781361665 3.2219851663392713 3.8392526043738284
-0.6866334486490192 3.842167865406989 4.63381979755449
-0.7937141267773147 4.327107322613788 5.517066929045139
-0.787254534519903 4.534670521932439 6.506593829875115
-0.6266461961156072 4.444355109400684 7.502663007192492
-0.3867150171435452 4.192560105094349 8.455520196748314
-0.14412349886397302 3.875564130900063 9.38824355512665
0.06143158570565015 3.5121633670999697 10.312838678820546
0.22697392754857845 3.0836335743789567 11.217290957314924
0.3819912618758201 2.5841915710632084 12.086597487984815
0.5669295637313791 2.048911854977202 12.928383798911504
0.8062843294419637 1.5350923134098249 13.769705705035033
1.0961528961377782 1.0942716257903053 14.63605422692223
1.4039940107258706 0.7483495770808657 15.538552307370392
1.6862734243884676 0.49237599293103856 16.478610130961332
1.9040103535428 0.3222526965018906 17.454499424792466
2.0310301055974733 0.265067765294002 18.458784658109696
2.058890909314465 0.3766326633353587 19.46568781530753
2.015774320644328 0.6811176153596231 20.431700688112148
1.9713948652574098 1.132212212948432 21.33898646560576
1.991870150409648 1.665495130993697 22.201470765542776
2.1110890723344187 2.2391238807969067 23.029479004453048
2.3111305838548053 2.852904673868797 23.811937746798534
2.5069632052313513 3.5599865222008327 24.511599402752278
2.5382228329588696 4.4200176227490156 25.04331630680524
2.311680233136672 5.35842429399327 25.345259513224335
1.9234947333035883 6.2544936073255615 25.49058197330184
1.4172845370311014 7.161938255600716 25.56808876025666
LINES 1 65
64 0 1 2 3 4 5 6 7 8 9 10 11 12 13 14 15 16 17 18 19 20 21 22 23 24 25 26 27 28 29 30 31 32 33 34 35 36 37 38 39 40 41 42 43 44 45 46 47 48 49 50 51 52 53 54 55 56 57 58 59 60 61 62 63
POINT_DATA 64
SCALARS MaximumInscribedSphereRadius float
LOOKUP_TABLE default
0.9300000071525574
0.9325249791145325
1.0936000347137451
1.0430799722671509
0.7032009959220886
1.0269500017166138
0.9362879991531372
0.6884629726409912
0.9880939722061157
1.2560900449752808
1.2203799486160278
1.0321199893951416
1.0536799430847168
1.165369987487793
1.0075900554656982
1.1115000247955322
1.2400000095367432
1.3019499778747559
1.7488499879837036
1.8600000143051147
1.8600000143051147
1.8600000143051147
1.8600000143051147
1.8600000143051147
1.8600000143051147
1.864609956741333
2.0064198970794678
2.1700000762939453
2.111649990081787
1.9511699676513672
2.2269599437713623
2.1877400875091553
1.6527199745178223
1.803439974784851
2.030100107192993
2.019289970397949
1.6000800132751465
1.5499999523162842
1.5499999523162842
1.5769799947738647
1.6728299856185913
1.8167500495910645
1.8734099864959717
2.048640012741089
2.4574999809265137
2.243680000305176
2.1700000762939453
2.254309892654419
2.418440103530884
2.029639959335327
2.145709991455078
2.3021700382232666
1.9548699855804443
2.017659902572632
2.2679100036621094
2.4701499938964844
2.473900079727173
2.303040027618408
2.06427001953125
1.8700499534606934
1.9031399488449097
2.107789993286133
2.031519889831543
1.8600000143051147
