# vtk DataFile Version 2.0
Vessel Segment
ASCII
DATASET POLYDATA
POINTS 64 float
-8.833326828801216 -12.830730188074227 -3.218980656877771
-7.856200288751267 -13.183871722347412 -3.3596305540389677
-6.9140662239904405 -13.402926041860493 -3.4836307017120256
-5.910745772026685 -13.512677453409168 -3.627125050403521
-4.912486893433821 -13.464101931529962 -3.8003362776406866
-3.949797480311313 -13.226792592702358 -4.010789792903835
-3.067644448804284 -12.784616531442042 -4.242688850336743
-2.2918551782272543 -12.166124660198633 -4.451786824639148
-1.5992358347813078 -11.439661012530676 -4.598343235055594
-0.942977741844292 -10.67001916104923 -4.677397506331015
-0.2868488885363625 -9.896946386580613 -4.7130762397202535
0.3708299600632501 -9.126294369230477 -4.7659179088007555
0.9667503712742408 -8.325436184852935 -4.942381867153342
1.3221226587548243 -7.471139362052631 -5.348527218254273
1.3402255097724456 -6.606188408957627 -5.876499792355601
1.156141446340893 -5.721646682224204 -6.336817331597533
0.8844535978153264 -4.793489293130187 -6.641350609745407
0.5687384667360206 -3.838735957854109 -6.772253972431026
0.20657109574265756 -2.891335575691624 -6.763835744195495
-0.21920923281086732 -1.9762072591093787 -6.662673643101274
-0.7206189025802427 -1.1092532308118639 -6.5015582699950665
-1.2991819305807002 -0.3026993166255184 -6.292489985914622
-1.942330593974269 0.4320677555662529 -6.017965381393528
-2.6190218097330207 1.0730713443662152 -5.619201852579244
-3.2456656775923296 1.5534035826885406 -4.985549129675674
-3.594099992774143 1.7172600087918928 -4.056530087054098
-3.505974937062856 1.5425615235519596 -3.065117135077902
-3.1030685153155892 1.2026429659284987 -2.2002591784102465
-2.498491629279404 0.8158804915305791 -1.4842943506615405
-1.7532443398904376 0.4511267786002839 -0.9013259485277727
-0.9083215004926839 0.1612612327665515 -0.4211050639755024
0.0 0.0 0.0
0.9220109967628051 0.03347059220036581 0.41978890057751606
1.7622591453824903 0.32776008096784975 0.9021277635822739
2.3867584606856496 0.8752459717725617 1.4806563349577975
2.7411740514923557 1.566964044919805 2.1307096898745725
2.884051382294328 2.306093539477012 2.810153231687108
2.898862321154128 3.057665827571122 3.491448031191836
2.848609180247968 3.8181630953562973 4.161101637489619
2.7739721498080487 4.589485595682178 4.815953787452524
2.6971791381514176 5.365793464553419 5.464749931892032
2.628781845177899 6.126662661997876 6.132421076778365
2.5768132914126443 6.827907463032857 6.863410345499509
2.557039982868117 7.370124811480538 7.7189271420624825
2.5842333721392654 7.581439637384383 8.707041486102373
2.6126695516305944 7.422753076505495 9.707434608972186
2.5618325498082943 7.0669872238641585 10.655784317205807
2.3940817424295116 6.647490460143086 11.563862114923058
2.11642577409152 6.224496907750098 12.443117369081309
1.76051131514696 5.819215241323596 13.302381921049465
1.359340399234397 5.433389847944099 14.150639308203012
0.9369959666899589 5.0560654992073095 14.992495941615687
0.5077842188698346 4.66660785181683 15.82526345346219
0.0800705725532498 4.241271324996763 16.641002176883866
-0.3392546314142382 3.762114290290219 17.43084057108579
-0.7427427554453597 3.225229703492151 18.191265963985174
-1.1247512931524566 2.6451851039211403 18.9308720949126
-1.4856059762169647 2.055774927736459 19.673682615209803
-1.8299659316266665 1.507732594506795 20.454816810726033
-2.158431832251798 1.0677899009068674 21.307255351678634
-2.460618473917112 0.8045821091145866 22.23870687474052
-2.722252829405699 0.7498392811908535 23.221746199138213
-2.930326848403317 0.866506577076984 24.167387349382228
-3.107201676849443 1.1509789395136845 25.16079033395802
LINES 1 65
64 0 1 2 3 4 5 6 7 8 9 10 11 12 13 14 15 16 17 18 19 20 21 22 23 24 25 26 27 28 29 30 31 32 33 34 35 36 37 38 39 40 41 42 43 44 45 46 47 48 49 50 51 52 53 54 55 56 57 58 59 60 61 62 63
POINT_DATA 64
SCALARS MaximumInscribedSphereRadius float
LOOKUP_TABLE default
1.1160000562667847
1.2078100442886353
1.2625099420547485
1.2477500438690186
1.130769968032837
0.9590510129928589
0.9325979948043823
1.0371899604797363
1.2753700017929077
1.0018099546432495
0.9219250082969666
1.5541800260543823
1.6754599809646606
1.2617199420928955
0.8470500111579895
1.2427799701690674
1.4648000001907349
1.5148899555206299
1.3470100164413452
1.1741700172424316
1.0039199590682983
1.027269959449768
1.208299994468689
1.4995800256729126
1.6541800498962402
1.4090399742126465
1.5874500274658203
1.8066699504852295
2.0101699829101562
2.23009991645813
2.3184800148010254
2.2142701148986816
2.2286300659179688
2.2329800128936768
2.1749300956726074
2.1700000762939453
2.2386701107025146
2.406680107116699
2.4800000190734863
2.4800000190734863
2.2427499294281006
1.9400800466537476
1.8600000143051147
1.768779993057251
1.6307899951934814
1.7896499633789062
1.475450038909912
1.4295200109481812
1.780769944190979
1.5188299417495728
1.2033699750900269
1.0085099935531616
1.0372300148010254
1.1975599527359009
1.2400000095367432
1.2458100318908691
1.2683099508285522
1.3794499635696411
1.5248899459838867
1.5499999523162842
1.6263099908828735
1.7522499561309814
1.686229944229126
1.5499999523162842
