# vtk DataFile Version 2.0
Vessel Segment
ASCII
DATASET POLYDATA
POINTS 64 float
-6.5168744645777945 -10.219658100826749 -3.1512554942846953
-5.8221245914887705 -10.780202165842992 -3.6994003210920674
-5.06603654368614 -11.136678992570834 -4.2055378015203
-4.176142586042436 -11.269517401472541 -4.676992241745037
-3.2361265521015397 -11.08926697501948 -5.00660761431907
-2.3350771504073724 -10.648729703003632 -5.149528401083953
-1.5075189029811666 -10.062889948188607 -5.137134576666534
-0.7395194064387284 -9.40992216587078 -5.0236990182470835
-0.01306380476633221 -8.720445024655483 -4.861773971441211
0.672433085493982 -7.988271179845924 -4.710122177846061
1.274676424868186 -7.173900946669841 -4.6711974039052535
1.6251578687586554 -6.2661349438715215 -4.935032981948163
1.6073594370701956 -5.418527980600664 -5.489144768978408
1.3817656949622121 -4.65569307373191 -6.1182517857126175
1.0511453949362282 -3.9120357676258166 -6.723816938968568
0.6336263273008138 -3.155828949571115 -7.255381263426148
0.1172764994693612 -2.3852439942385075 -7.664839233144134
-0.5050199540356015 -1.6229160366468247 -7.908350592413365
-1.2136952273820716 -0.9006029603089954 -7.970962632198905
-1.9710013927503294 -0.23368319694754094 -7.870369738626934
-2.739879265141166 0.3817842115119877 -7.6282651975224525
-3.4860244205597133 0.9481208509397995 -7.239969308311439
-4.152619243895633 1.4421854129458407 -6.65824950140555
-4.584078392385626 1.754360449953473 -5.800881964798521
-4.544741652009017 1.694222157850901 -4.797927527017661
-4.149750676707562 1.345478186664953 -3.9331938162134277
-3.608162079523257 0.8959153421004341 -3.202962735830765
-2.9904340416483444 0.4434078837857088 -2.5375053306777113
-2.3107800056085916 0.059109897545948906 -1.8900005960567128
-1.5710448765952927 -0.18521391738356235 -1.2410565737520907
-0.7858125990285607 -0.2183761214065906 -0.6012586052888993
0.0 0.0 0.0
0.7258805692010735 0.4486789704672537 0.5470142965006892
1.3520493003992797 1.0596263278252525 1.0597625840884055
1.866238778432606 1.7630301545831526 1.579045756691773
2.2666430847831482 2.50281725219379 2.1457506175511805
2.5501199101586316 3.2314262403542324 2.791576141558814
2.7079448307770626 3.908140589379596 3.5301651218989836
2.7292304731131147 4.4985135633508655 4.354142596197507
2.61022725769913 4.976018977393266 5.240600542810423
2.364526783468637 5.324398456417458 6.160652747562476
2.026507534232184 5.53888861198257 7.092441394145959
1.640635916621421 5.6203650547233615 8.026899357358378
1.2533002372264779 5.569260438231331 8.962878341973653
0.9038799176570231 5.389736239483211 9.897957169546379
0.6131132875297154 5.100719554320578 10.825773383543343
0.38066202319953046 4.738107019004329 11.744285616944286
0.1958944625070131 4.342150372981943 12.659931312828421
0.0463720574699251 3.9507616971170796 13.583957790298752
-0.07557037901694756 3.5956087943045074 14.526493140660811
-0.17026760557403647 3.3007240824648503 15.492527878641674
-0.23082925875995025 3.0814273495428264 16.481137188765963
-0.24872832096513656 2.945616423341478 17.486247572099472
-0.22208475733602756 2.896177284079266 18.499107665657426
-0.1601366384431429 2.9330317378269877 19.510981850416496
-0.08102577280375146 3.0586697292511404 20.51451081201608
-0.0044919615890963065 3.282529132627671 21.50085681615447
0.05640816401050239 3.623206416310191 22.45426446167982
0.09971851847383968 4.098821365728059 23.348897454220072
0.1284692385145605 4.709470823178022 24.157857433771298
0.14397971337037135 5.4336404962346245 24.86854960620002
0.1449137791631866 6.241601635228301 25.488072526255962
0.1303614644812536 7.065552760555738 26.01277385244348
0.09227512215447972 7.986441256059723 26.511675642207795
LINES 1 65
64 0 1 2 3 4 5 6 7 8 9 10 11 12 13 14 15 16 17 18 19 20 21 22 23 24 25 26 27 28 29 30 31 32 33 34 35 36 37 38 39 40 41 42 43 44 45 46 47 48 49 50 51 52 53 54 55 56 57 58 59 60 61 62 63
POINT_DATA 64
SCALARS MaximumInscribedSphereRadius float
LOOKUP_TABLE default
0.8741999864578247
0.9042149782180786
0.9917240142822266
1.1727299690246582
1.0697599649429321
1.3344899415969849
1.8228199481964111
1.9320600032806396
1.7474299669265747
1.5502699613571167
1.4801199436187744
1.2462899684906006
1.2371100187301636
1.1260199546813965
1.6124000549316406
1.7362799644470215
1.5874600410461426
1.7783600091934204
1.6910899877548218
1.4804099798202515
1.3032100200653076
1.4253900051116943
1.7590999603271484
2.0153000354766846
1.9839999675750732
2.036400079727173
2.187730073928833
2.3642899990081787
2.1080100536346436
1.8600000143051147
1.8600000143051147
1.9494099617004395
2.339629888534546
2.282939910888672
1.942270040512085
1.6374399662017822
1.7937699556350708
1.5502099990844727
1.4009000062942505
1.8145699501037598
1.858430027961731
1.7540299892425537
1.5627599954605103
1.7915600538253784
1.8847999572753906
1.880810022354126
1.8821200132369995
2.0375800132751465
2.085200071334839
1.925950050354004
2.0618300437927246
1.92739999294281
1.6916899681091309
2.0411899089813232
2.078320026397705
2.131769895553589
2.4290499687194824
2.4800000190734863
2.64766001701355
2.7899999618530273
2.7666399478912354
2.5823400020599365
2.5928900241851807
2.7899999618530273
