# vtk DataFile Version 2.0
Vessel Segment
ASCII
DATASET POLYDATA
POINTS 64 float
-4.885027529353211 -13.56672630040699 -2.6076244918488234
-3.944233820517081 -13.870965787643849 -2.9256050676765635
-3.0455853199383056 -13.939880237242091 -3.3360037104477356
-2.1738136327381024 -13.802076751187405 -3.831160221266143
-1.3898484469591599 -13.450606341439556 -4.368737941442424
-0.7229641055174726 -12.892700447680108 -4.8889861082426265
-0.1828811614873299 -12.151322156207401 -5.31932310457787
0.23969804476550452 -11.27442749631585 -5.601297977532379
0.5751260801594102 -10.325232196137678 -5.7216164240550835
0.8539783910473603 -9.349970190544642 -5.718574964487122
1.067553494547793 -8.360066974472645 -5.660314286216356
1.114277539396102 -7.348639572011196 -5.638747416382978
0.7896870450313842 -6.400706272797807 -5.753975720869132
0.15720517485434424 -5.631461288345647 -5.942790664689643
-0.5877661403395247 -4.958438209236425 -6.087189231611598
-1.3783455318319309 -4.324160947548185 -6.119667058225153
-2.206676406425828 -3.7538147378181668 -5.993347558474987
-3.073509318184004 -3.318020019294098 -5.700795022081376
-3.955444726604285 -3.029614045775369 -5.291583756782373
-4.8197139247763845 -2.8055124588020943 -4.809901000730705
-5.618540763777908 -2.5160846482161427 -4.257053116713992
-6.124763254712049 -1.930106283451545 -3.611957129269801
-5.588928724067344 -1.216808542557832 -3.243912521868878
-4.598573839487165 -1.0268448631321194 -3.26097462194273
-3.6029260882258813 -1.191591611324147 -3.3440362648789073
-2.6660510785597173 -1.5778396413843279 -3.36610565101334
-1.7824091275105098 -2.056202558415868 -3.2352082228840944
-0.9391685518045926 -2.4066417368381035 -2.8074798452021454
-0.33295398421580796 -2.192812399138202 -2.044697897795472
-0.08191135288036677 -1.5503762017524987 -1.302498050354486
8.036317313154848e-05 -0.7912093115820305 -0.6349517571353538
0.0 0.0 0.0
-0.041011867136801376 0.7944147641238993 0.6298883643343861
-0.09550173442741734 1.5726825084311835 1.2784235359221539
-0.153337275488998 2.313782629897273 1.9688531175450588
-0.22349235673972714 2.989942736144491 2.7215818663087687
-0.3215220961398902 3.5647657322149113 3.5512365088762765
-0.45227453290214864 3.9949665574482025 4.459869517566255
-0.5991541691692116 4.241216668677383 5.432019974701152
-0.7250654465091567 4.28159888346971 6.4368829274985915
-0.7872813048048255 4.119344423735348 7.435392665393352
-0.7576123970689437 3.7801200787929745 8.390163092277817
-0.6327614169005585 3.3017967768315954 9.2754081567768
-0.4313230369228905 2.7223429730418482 10.083095148025675
-0.18702234754088806 2.073986406818142 10.824071110091147
0.05988476779871725 1.383325706756131 11.525034249222465
0.2819430792087626 0.6768867061424 12.218543936934395
0.47941609966362003 -0.013206561389614008 12.935542207383904
0.6698328127937392 -0.6432841846136557 13.7072957975376
0.8737376215172484 -1.14312272216565 14.565186949943552
1.102844889186086 -1.3916228829054786 15.518851132604695
1.3401390356960081 -1.2332007372713363 16.486707864307732
1.535563025084637 -0.6306044607359046 17.272093930767596
1.6630509076273812 0.24134179672112224 17.77006259379327
1.7418072742337762 1.2111415123927514 18.05542343752798
1.7936469648323612 2.208914462738152 18.230859481633896
1.8204732387227343 3.2152471658056756 18.357175952104086
1.798705593138496 4.224976221123388 18.45325552430744
1.6984275670267346 5.232295472893007 18.518299795277887
1.525393675316943 6.2307156131311086 18.569134877672916
1.3562084713682543 7.226446672235387 18.665300049168874
1.3496920600900444 8.208857747673557 18.903554653952988
1.6238541161683293 9.066072829703975 19.313040344977097
2.159519766859337 9.772280098107656 19.85463040913908
LINES 1 65
64 0 1 2 3 4 5 6 7 8 9 10 11 12 13 14 15 16 17 18 19 20 21 22 23 24 25 26 27 28 29 30 31 32 33 34 35 36 37 38 39 40 41 42 43 44 45 46 47 48 49 50 51 52 53 54 55 56 57 58 59 60 61 62 63
POINT_DATA 64
SCALARS MaximumInscribedSphereRadius float
LOOKUP_TABLE default
1.1160000562667847
1.203220009803772
1.1149799823760986
0.8982679843902588
0.7038959860801697
0.8035849928855896
1.036120057106018
1.217329978942871
1.0573699474334717
1.0116599798202515
1.1989400386810303
1.2400000095367432
1.2400000095367432
1.0899699926376343
1.016219973564148
1.2144099473953247
1.4341800212860107
1.3439600467681885
0.94930100440979
1.3531099557876587
1.5499999523162842
1.6765799522399902
1.8600000143051147
1.8600000143051147
1.8936599493026733
2.07381010055542
2.1700000762939453
2.092789888381958
1.9553500413894653
2.1258299350738525
1.9700700044631958
1.7640700340270996
1.5707499980926514
1.5499999523162842
1.5499999523162842
1.4909600019454956
1.28725004196167
1.416700005531311
1.5499999523162842
1.5714600086212158
1.7540299892425537
1.9694099426269531
2.104449987411499
1.9014500379562378
1.693750023841858
1.5499999523162842
1.552780032157898
1.7045700550079346
1.9123300313949585
2.112060070037842
2.1700000762939453
2.0383501052856445
1.9462100267410278
2.0676300525665283
1.7602800130844116
1.750190019607544
2.1073200702667236
1.746500015258789
1.6756800413131714
1.7814600467681885
1.6274100542068481
1.7719999551773071
1.7289600372314453
1.5499999523162842
