# vtk DataFile Version 2.0
Vessel Segment
ASCII
DATASET POLYDATA
POINTS 64 float
-1.1608857235971703 -15.250365825031759 -4.2608155543923365
-0.48943062281931543 -14.797528829822845 -4.92627999823746
0.03913454736085486 -14.212109133891207 -5.500046062400404
0.4540784139383841 -13.414285606561105 -5.975783417314297
0.6932121857661795 -12.463485174521917 -6.230571914610208
0.8030042740713221 -11.456208092217246 -6.261079339108228
0.8529828306937309 -10.451242614527823 -6.132887058855546
0.8767698821022594 -9.461274002295651 -5.912349518970769
0.8635045886604463 -8.480309267564188 -5.653782561302709
0.7571926808015944 -7.4996742465685 -5.417441659508109
0.4236187470998892 -6.551499763609183 -5.299970722944733
-0.23885335791518703 -5.791562825546639 -5.367421997244499
-1.0982430769944576 -5.272179226256167 -5.508018241077529
-2.0324336537180168 -4.886685125144195 -5.594305682020829
-2.9944888149665676 -4.566674152110942 -5.567060978798096
-3.95268565344085 -4.278464738020623 -5.401482698512193
-4.8768028996067425 -3.9967050570481697 -5.092945239623662
-5.738574232881262 -3.69594195110084 -4.650809514670004
-6.512747664637744 -3.3487944402198737 -4.095157765339814
-7.170611307183833 -2.925538207326569 -3.4499839432065396
-7.656350340759075 -2.3887651617645163 -2.740886494881498
-7.8043521231419355 -1.6872916257000827 -2.0247004482851105
-7.220064472457071 -1.0050974694547785 -1.6392675532750987
-6.240722267512398 -0.7807933196185927 -1.7684847097684526
-5.270036032630956 -0.8447416958400316 -2.0543336833960617
-4.3128555042644035 -1.0373758869184353 -2.3295794627851527
-3.3403891219923962 -1.2706955751981153 -2.4983204240948056
-2.3439484721537025 -1.451237154980292 -2.4615069687264155
-1.3911067020508288 -1.445478315691604 -2.1235713451047293
-0.6444626022294122 -1.157465229380063 -1.5064020899464976
-0.19428996190075068 -0.6402699072871332 -0.7615123106492085
0.0 0.0 0.0
0.010105256837523563 0.6914356643232383 0.7418149074108726
-0.10481969094550467 1.3964256943320437 1.4621093313438642
-0.2999645057222009 2.0947610398364396 2.1716911913263637
-0.5395559890973409 2.7734079256642254 2.8868381696924126
-0.7936169148140791 3.4213863521999888 3.62502561506077
-1.0391133726408095 4.029931882781573 4.398754997253621
-1.2596663176870495 4.593672247289561 5.21290987385602
-1.4443102193971653 5.107251036768547 6.068091563732828
-1.5833394085200012 5.556454721365695 6.966937930026398
-1.6640064005636084 5.909695100018578 7.914238365895516
-1.6717140251807168 6.114506419063079 8.907177621558368
-1.594570331886923 6.107864192379225 9.917563652411204
-1.4334315882399096 5.854798780256623 10.885367643452486
-1.2045108265460116 5.392079489923534 11.757914931910607
-0.922464640423667 4.802557839668325 12.533649644875881
-0.5878323727639049 4.162490492778725 13.246100757365472
-0.19370111451253497 3.5276097722213273 13.932241649119408
0.26190728902548044 2.9337066320068574 14.617043067918175
0.7665750345583806 2.3958014910510648 15.313621710579161
1.2983272887450168 1.9202738666219374 16.034891610354084
1.830491128538204 1.5203864588426552 16.800365649340247
2.3315291906929247 1.228005475366541 17.63223056304821
2.7666726805376913 1.0943158084474953 18.53801241211852
3.1061532495618005 1.17429257270344 19.489415293882818
3.349110989589155 1.4955931916467393 20.419254208957657
3.5343780208900837 2.04400129743061 21.251108874991676
3.713863883499245 2.778083450556046 21.926507472880633
3.9226327718721854 3.6405941048624064 22.41625799405218
4.1658936669462 4.575000243358487 22.72719647574321
4.4280490562621075 5.546638381531138 22.890952007870982
4.6759365551493515 6.488017259717268 22.946253173165637
4.89772003771237 7.512560409059018 22.921664590881456
LINES 1 65
64 0 1 2 3 4 5 6 7 8 9 10 11 12 13 14 15 16 17 18 19 20 21 22 23 24 25 26 27 28 29 30 31 32 33 34 35 36 37 38 39 40 41 42 43 44 45 46 47 48 49 50 51 52 53 54 55 56 57 58 59 60 61 62 63
POINT_DATA 64
SCALARS MaximumInscribedSphereRadius float
LOOKUP_TABLE default
0.6200000047683716
0.7906609773635864
0.9147570133209229
0.9300000071525574
0.9300000071525574
0.9300000071525574
0.9437869787216187
1.1975300312042236
1.5075500011444092
1.5422699451446533
1.4095900058746338
1.1517399549484253
0.9672030210494995
1.1827199459075928
1.4721299409866333
1.695289969444275
1.4347399473190308
1.4351500272750854
1.7247400283813477
1.7331000566482544
1.5707199573516846
1.7813899517059326
1.8696000576019287
2.0652599334716797
2.2676100730895996
2.4364099502563477
2.1480801105499268
1.8716700077056885
1.8680399656295776
2.055730104446411
2.0624799728393555
1.8774900436401367
1.8600000143051147
1.922160029411316
2.0943400859832764
2.280829906463623
2.356260061264038
1.9315999746322632
1.6739399433135986
2.0453100204467773
1.926069974899292
1.6462299823760986
1.742959976196289
1.8464800119400024
1.8503899574279785
2.019789934158325
2.1087899208068848
1.973039984703064
2.196160078048706
2.5475099086761475
2.50108003616333
2.5869100093841553
2.7406699657440186
2.6090500354766846
2.492609977722168
2.4768600463867188
2.3225700855255127
2.3094899654388428
2.6534199714660645
2.6579298973083496
2.4868500232696533
2.494960069656372
2.595669984817505
2.7899999618530273
