# vtk DataFile Version 2.0
Vessel Segment
ASCII
DATASET POLYDATA
POINTS 64 float
-0.6281531669932252 -14.794477938318616 -0.34759284036648
-0.07995850018890661 -14.08316709346684 -0.8662936955035633
0.28491958688979535 -13.398003888847049 -1.484954288545415
0.5208328274041192 -12.685648161961417 -2.16480973127231
0.6561384414012392 -11.930127770314336 -2.8282096247705346
0.7383682062996991 -11.097483866220523 -3.4010454237194607
0.8110919055032584 -10.173717953195354 -3.8116548318277625
0.8858500322834152 -9.186524458883346 -4.029497054878969
0.926038821765974 -8.175070099048682 -4.0911172552985935
0.8563332651023048 -7.163710533005391 -4.069939381385116
0.5920929940968317 -6.185987896229952 -4.041271636218689
0.09861285179917033 -5.301582901167192 -4.059087612188024
-0.5841628603376269 -4.556684609610675 -4.135566682584711
-1.3994845666516003 -3.965565334924134 -4.251276976122835
-2.3116706396875535 -3.538320564815327 -4.36489471936722
-3.2948227016200566 -3.2975424691006463 -4.411414893862275
-4.301831581664718 -3.248727864146931 -4.312652067451724
-5.269836990498207 -3.3280396394727694 -4.02330364396447
-6.15816752100731 -3.426192827145108 -3.545263468586015
-6.936072602653204 -3.424996887743449 -2.8966386716184935
-7.507910120083006 -3.1706327803177294 -2.1047687005836333
-7.52928667684607 -2.4872342240028047 -1.3902436780735588
-6.9109305390194375 -1.7157477862156139 -1.2122644048408944
-6.090097501366199 -1.1584760826119496 -1.4116480022644395
-5.2122125145745155 -0.791171463178441 -1.7611180657331493
-4.296648364191576 -0.5741351771931088 -2.139344193931035
-3.337117216813569 -0.4780647765282723 -2.452598252242782
-2.33393484160614 -0.47315471905412254 -2.5938883620360595
-1.3376552191220021 -0.5072691902082418 -2.4255752037174796
-0.5139448323118097 -0.48480803245766735 -1.845343127621042
-0.06324245966842008 -0.31451728277982 -0.9592398749414563
0.0 0.0 0.0
-0.21822874397322678 0.40172709337179174 0.9040827321242374
-0.6177981478776006 0.8399810327647383 1.726565820750458
-1.1215503480935516 1.2775466401732454 2.4906879473615193
-1.6600091943447541 1.681390921313554 3.2497386456275126
-2.137732651480975 2.000902433169092 4.0845036158438885
-2.393745777803352 2.144259388109161 5.051497053294459
-2.330697735985139 2.058020965876656 6.057112421540478
-2.051915716737803 1.8055403228984483 6.998346710917912
-1.677183362482777 1.4462180751722031 7.869619842110659
-1.2717647289609204 0.9987592226702977 8.684681571150207
-0.870430112029331 0.4644970319859378 9.44783011384256
-0.4940265257333617 -0.15441428836561802 10.157876869834755
-0.1502669415846908 -0.8437699631616056 10.817966216968726
0.17047101670495796 -1.5716963505787598 11.447786263779067
0.49276371577428285 -2.288246461281132 12.089603590450208
0.8465037280320367 -2.9194323893673166 12.79988943343733
1.2478563423145717 -3.354406365286555 13.621392102315925
1.6722994535924467 -3.479103989740906 14.531065632108326
2.0591952941581093 -3.2622762527996443 15.440490315753888
2.35526764859455 -2.7582953000073345 16.267224023056077
2.5369960134358327 -2.0478160524405227 16.96611442210451
2.6110916140669866 -1.2068930851279707 17.52733876959459
2.60724906972256 -0.2946623045416843 17.970677638239987
2.5632526484893785 0.6510914900515306 18.335108319519218
2.5127249263366203 1.6086448063342595 18.666800816044315
2.4754388873904603 2.5636480658563174 19.007093967095805
2.447545049199192 3.505013168414111 19.384644568080564
2.396241223533904 4.424118862033031 19.81096916418317
2.2614475095147912 5.313165751215466 20.280345036731493
1.9732755997209084 6.152875999423709 20.76628987929889
1.5005515893187666 6.899364867886202 21.21779979303467
0.8111923709407445 7.5635483187519545 21.617009273898248
LINES 1 65
64 0 1 2 3 4 5 6 7 8 9 10 11 12 13 14 15 16 17 18 19 20 21 22 23 24 25 26 27 28 29 30 31 32 33 34 35 36 37 38 39 40 41 42 43 44 45 46 47 48 49 50 51 52 53 54 55 56 57 58 59 60 61 62 63
POINT_DATA 64
SCALARS MaximumInscribedSphereRadius float
LOOKUP_TABLE default
1.2400000095367432
0.8541190028190613
0.8797609806060791
1.4358799457550049
1.135509967803955
1.0564600229263306
1.2260199785232544
1.2400000095367432
1.2400000095367432
1.2400000095367432
1.2249200344085693
1.1464099884033203
1.1809300184249878
1.3416999578475952
1.5864100456237793
1.3895200490951538
1.2400000095367432
1.273210048675537
1.4915499687194824
1.8903800249099731
2.167829990386963
1.7244999408721924
1.3842899799346924
1.6124999523162842
1.792580008506775
1.4846899509429932
1.2310500144958496
1.7611199617385864
1.4955099821090698
1.4996000528335571
1.8375500440597534
1.8600000143051147
1.8600000143051147
1.8600000143051147
1.8600000143051147
1.8600000143051147
1.9324300289154053
2.1619200706481934
2.1652400493621826
2.0144801139831543
1.813040018081665
1.6211199760437012
1.5499999523162842
1.5759799480438232
1.7378599643707275
1.9501800537109375
2.1700000762939453
2.1700000762939453
1.9943100214004517
1.9757200479507446
2.1262800693511963
1.9840600490570068
2.235150098800659
2.1802899837493896
1.6617399454116821
1.9231899976730347
2.1628499031066895
2.171799898147583
2.1847500801086426
2.0993900299072266
1.8781499862670898
1.6436699628829956
1.7922899723052979
2.1700000762939453
