# vtk DataFile Version 2.0
Vessel Segment
ASCII
DATASET POLYDATA
POINTS 64 float
-3.0577111380544295 -14.859942915686139 -2.846071053625043
-2.4726731203193477 -14.174869179578124 -3.3743603335218024
-1.7986045495173104 -13.607937893663273 -3.811764952376084
-1.0583776541722427 -13.041980744991386 -4.214608711971865
-0.3299698064276603 -12.430554832194803 -4.569087353349318
0.27815629680546367 -11.674519264804188 -4.859057612914394
0.6112772779743766 -10.737344344637751 -5.042802505285109
0.7015256153942737 -9.731293086327693 -5.133621784224208
0.6957112289383578 -8.719052798798874 -5.201560169988984
0.6250856562107491 -7.71214823070867 -5.302230732024436
0.4209173775568348 -6.732408403015135 -5.464090236015844
-0.004078030081400854 -5.837259496792951 -5.673595785989931
-0.6650450073486871 -5.094862065383019 -5.868529077680628
-1.4879263514217909 -4.51329372816586 -5.9785034944495274
-2.3872107967861216 -4.044782400540185 -5.967878028996956
-3.299615917753604 -3.6245153891304662 -5.827981908476409
-4.172418730830376 -3.183206611043355 -5.559831248632037
-4.931841948320231 -2.6376589116034173 -5.169928345053669
-5.401023296908625 -1.8842495768241032 -4.688912735739846
-5.199836598163254 -0.9936365390303377 -4.2932010659054045
-4.4107425579189785 -0.3759799571111323 -4.181738681379101
-3.4372664989228503 -0.10990589195793163 -4.253577294896723
-2.4354385385411006 -0.1504330975378471 -4.396461572210513
-1.4782675695558813 -0.46102084320610226 -4.513366266421602
-0.6099762550761817 -0.9827906524665251 -4.503388250538559
0.14224943458511413 -1.6165270257311923 -4.263278898301334
0.7414337790295593 -2.1979730476854744 -3.6946315983919984
1.077392996601553 -2.442474583016968 -2.780605363687039
1.0469632217785194 -2.160659778948405 -1.8147444142107294
0.7654146194985708 -1.547823636789486 -1.0601247754669423
0.38409483477849804 -0.8019255096643363 -0.48861654875365307
0.0 0.0 0.0
-0.30083037973646287 0.8198520492372278 0.5155409719010078
-0.4313152527492365 1.5880232010836681 1.1624159382592671
-0.37927703754415126 2.205163756770063 1.9640610712553446
-0.24570532584371166 2.6516017124515403 2.8647017215673913
-0.1329630634806855 2.958490434862545 3.824669558705732
-0.09766528060273248 3.1287777664459826 4.823582786347411
-0.15706388440811145 3.1384449121014937 5.835568539019867
-0.28686853959264963 2.9690974739972886 6.8266922158995005
-0.43120324379491126 2.6397647975429432 7.774942144028596
-0.5344549944737539 2.2025311215688737 8.684418472680616
-0.5728273571551029 1.712013464860412 9.571597927570645
-0.5590375172766641 1.2022144947578108 10.448683798374356
-0.5238773313738032 0.6866265476350225 11.321825555718362
-0.4974080057981208 0.16830183845981064 12.193612550091744
-0.4956336108390385 -0.3450369014676786 13.068753934225775
-0.5173100424296782 -0.8285967453137599 13.960368149398683
-0.5440567905170103 -1.2274617884285581 14.892463344075729
-0.5282555039962202 -1.4151930480463182 15.887654971499451
-0.3744435861408338 -1.1630784625740873 16.84982578092784
-0.06481423837929644 -0.4972346910475316 17.544573593704197
0.32215783809159376 0.32111364434347855 18.001081829909065
0.7460438382651833 1.179177880281564 18.33765886539378
1.187405979430187 2.044818347569466 18.629715734523216
1.626452451896005 2.9096552878805895 18.92754535470041
2.036411873893289 3.773320979497872 19.266752864636825
2.387159929963231 4.637905586207437 19.664956259823953
2.6591301527892286 5.50577667600125 20.11433747930076
2.854358032174367 6.379392244447228 20.591590981831388
2.9926074876606044 7.261547116922126 21.074621137334535
3.102139663439958 8.15229442350204 21.54930750461437
3.2070941293619457 9.022267823406635 21.994062701282246
3.3534554725375463 9.955579256256964 22.44137638914665
LINES 1 65
64 0 1 2 3 4 5 6 7 8 9 10 11 12 13 14 15 16 17 18 19 20 21 22 23 24 25 26 27 28 29 30 31 32 33 34 35 36 37 38 39 40 41 42 43 44 45 46 47 48 49 50 51 52 53 54 55 56 57 58 59 60 61 62 63
POINT_DATA 64
SCALARS MaximumInscribedSphereRadius float
LOOKUP_TABLE default
1.2400000095367432
1.2610100507736206
1.2765100002288818
1.2771999835968018
1.2631800174713135
1.240839958190918
1.259559988975525
1.4418100118637085
1.303570032119751
0.9562280178070068
1.1672300100326538
1.0952500104904175
1.0084500312805176
1.2036199569702148
1.2627700567245483
1.241629958152771
1.2400000095367432
1.3821799755096436
1.7034599781036377
1.3579699993133545
1.4361300468444824
1.4553500413894653
1.2008399963378906
1.1732699871063232
1.2784899473190308
1.6109299659729004
1.5353000164031982
1.3214900493621826
1.5350899696350098
1.3625600337982178
1.3166500329971313
1.4804099798202515
1.5499999523162842
1.6373499631881714
2.0584499835968018
2.0291800498962402
1.8833099603652954
1.8600000143051147
1.8600000143051147
1.8600000143051147
1.6916999816894531
1.6187900304794312
1.7766000032424927
1.6531200408935547
1.4549599885940552
1.6958099603652954
1.9398499727249146
2.1375300884246826
2.1835899353027344
2.1091299057006836
1.9139200448989868
2.2841999530792236
2.323040008544922
2.0723400115966797
2.070780038833618
2.1598100662231445
2.1700000762939453
2.078929901123047
1.9063899517059326
2.0323801040649414
2.1595098972320557
2.1575000286102295
1.8098599910736084
1.2400000095367432
