# vtk DataFile Version 2.0
Vessel Segment
ASCII
DATASET POLYDATA
POINTS 64 float
-6.762690451944085 -12.493051608898488 -0.599506450170426
-5.743865714369164 -12.33633937625852 -0.6488640338097821
-4.7592495220056374 -12.21997565320466 -0.7706881222978489
-3.7743225235800395 -12.08265799462341 -0.9611273394353599
-2.811816752872395 -11.877772644478554 -1.2067799543940994
-1.8876064761129263 -11.56664407911803 -1.4852765991999264
-1.022047908877642 -11.12225229554793 -1.770526011576138
-0.2426284262396269 -10.529020832774101 -2.0315144573393473
0.42276891985250614 -9.789810188709014 -2.2263091825199752
0.95979435239903 -8.933884694791864 -2.3032920052114503
1.3805248021066385 -8.015443880348036 -2.221096129937319
1.7204994515298198 -7.090027715313129 -1.9839366185797154
2.001739935094183 -6.173951923172495 -1.6510654152838626
2.200401561622048 -5.242653498741867 -1.301954327235986
2.233776561403665 -4.272059974269321 -1.0136626141963572
2.008038802928583 -3.3007894205912782 -0.8417914195070586
1.5103063421436485 -2.4203169338003967 -0.8087104469208138
0.7858718189004045 -1.7217830905728764 -0.9117812478074412
-0.11061389993243212 -1.3033025576926736 -1.1210742840838122
-1.0894051328582308 -1.1817964369590983 -1.3513390302769979
-2.0873777067138595 -1.2503077065264676 -1.5170115486779936
-3.091151991030404 -1.386882130568388 -1.5638045933540645
-4.091955138182348 -1.4919559338521482 -1.4441434617054718
-5.034452522801197 -1.4581323149209506 -1.0806565595185507
-5.665055581119442 -1.1335652876251403 -0.3771841863557718
-5.531145280620459 -0.5529696771755163 0.4192895311139066
-4.79633297968129 -0.02882868026998312 0.8607243311704615
-3.8416829014090457 0.2981219763219922 0.8802864496681253
-2.8739294734762724 0.417819006966586 0.6071733535592381
-1.9351550721298134 0.37632130949441966 0.22592443809460763
-0.979242887458952 0.21968119935145008 -0.07213567216991325
0.0 0.0 0.0
0.7891201087194035 -0.16267080732162875 0.6043053344579199
1.2996853777138961 -0.19992973833498803 1.4774293593642989
1.6049350146223964 -0.1092746696952924 2.439393826000591
1.7375569184185196 0.11758378760232428 3.418008131014061
1.6830340535642518 0.4925835029414264 4.357197230872704
1.4062412720943063 0.9913809706490772 5.193661977020686
0.9136031882810958 1.5210925188283178 5.9032843320841994
0.27468546079959505 1.9815319351355292 6.54205907291758
-0.4248441112941681 2.3044746351235617 7.200879350029061
-1.087319520047116 2.4312680632807866 7.95618073282912
-1.5920934563422229 2.318401493775363 8.825430014333255
-1.848835972399219 1.9812320902491325 9.744059348293906
-1.8543418785625791 1.4816302169060576 10.624822003383835
-1.6579999347327565 0.8694423996123744 11.40790493296968
-1.3210076049336907 0.16654722120485096 12.055686004096646
-0.9184062261512212 -0.6154820373422224 12.5602021075334
-0.5195987106507385 -1.454843030660958 12.96709754464949
-0.16059774201734642 -2.3203366589463643 13.356039273271152
0.15850659048055601 -3.1709642865067837 13.806971179450708
0.46669879615877724 -3.937410689453091 14.393850238367238
0.8076989587588369 -4.4731997677534645 15.17962327692598
1.184749338232156 -4.551131772870454 16.10965552132512
1.5185634106131352 -4.158800577067916 16.978749978302034
1.7610138857837845 -3.4976440668957642 17.707051553856996
1.9108477888023219 -2.7119877359614932 18.33039020569285
1.9789314242971197 -1.8774791834699345 18.903128292338046
1.9815414904566742 -1.042504272000888 19.479352182321307
1.9418324065826285 -0.2470341401669898 20.10755255930125
1.8881709813512648 0.4758132598297982 20.816853924253078
1.8472457703337433 1.1097099141093572 21.605060040180817
1.8365201588029962 1.6572755227863658 22.44031753850913
1.8676392371946047 2.162248838510173 23.339975028753198
LINES 1 65
64 0 1 2 3 4 5 6 7 8 9 10 11 12 13 14 15 16 17 18 19 20 21 22 23 24 25 26 27 28 29 30 31 32 33 34 35 36 37 38 39 40 41 42 43 44 45 46 47 48 49 50 51 52 53 54 55 56 57 58 59 60 61 62 63
POINT_DATA 64
SCALARS MaximumInscribedSphereRadius float
LOOKUP_TABLE default
1.2400000095367432
0.9842020273208618
1.1436599493026733
1.0631099939346313
0.9300000071525574
0.9967229962348938
1.2219300270080566
0.9792760014533997
1.136549949645996
1.0849299430847168
0.9512310028076172
0.9777929782867432
1.0220199823379517
1.479390025138855
1.313979983329773
1.2400000095367432
1.2400000095367432
1.2400000095367432
1.1273200511932373
1.000499963760376
1.2176100015640259
1.3424400091171265
1.169219970703125
1.0430599451065063
1.2400000095367432
1.4040299654006958
1.417099952697754
1.2946399450302124
1.3622900247573853
1.2519700527191162
1.254639983177185
1.473389983177185
1.3281099796295166
1.66389000415802
1.6884499788284302
1.2575199604034424
1.2112499475479126
1.0208899974822998
1.1212300062179565
1.505120038986206
1.9117599725723267
2.0549099445343018
1.7874499559402466
1.6047999858856201
1.5504900217056274
1.6686500310897827
1.8187799453735352
1.7080700397491455
2.3066298961639404
2.3547399044036865
2.4878499507904053
2.8911099433898926
2.8047800064086914
2.4936699867248535
2.1946001052856445
1.5234999656677246
1.2592300176620483
1.4776599407196045
2.050909996032715
1.9394500255584717
1.8600000143051147
1.8600000143051147
1.7844200134277344
1.5499999523162842
