# vtk DataFile Version 2.0
Vessel Segment
ASCII
DATASET POLYDATA
POINTS 64 float
-3.5432321259921027 -14.066369611405756 -0.23089703732298417
-2.833958570090018 -13.559653682647326 -0.8088049174055972
-2.214693112197126 -13.08426449344497 -1.403656285399092
-1.60757856295225 -12.560520130973062 -2.0272213104507153
-1.033634046638943 -11.976176038452156 -2.626851024966053
-0.4971873655332202 -11.306907112515644 -3.168038133956348
-0.010296668557589803 -10.539803058260208 -3.6184448888897855
0.40979141374115685 -9.683739915303484 -3.9635957170215086
0.7483628450045952 -8.76310012889926 -4.221617210753581
0.9908286204915869 -7.802180710368098 -4.437835151487378
1.1091309759185026 -6.8214418037805835 -4.667217881446108
1.0471575038396839 -5.851859145647041 -4.955514657466452
0.7165477968027151 -4.966459555078055 -5.317350744390665
0.05273210898973743 -4.298460375448816 -5.683158904440173
-0.8668502949284006 -3.9414543644719724 -5.904094401946442
-1.8745482624635277 -3.8380879024037267 -5.914031759608107
-2.876961230849885 -3.8585027218537316 -5.761216869238356
-3.8571448804889177 -3.89997062672023 -5.503183175025862
-4.816318929531353 -3.880655326474732 -5.173927445987127
-5.735619802107162 -3.6920077780558844 -4.7926102247641555
-6.365330182427735 -3.014887152048879 -4.413094624356654
-5.8901946835056425 -2.1489811432519854 -4.363481947813851
-4.994467791725575 -1.6938274743892898 -4.463527263392289
-4.00848984713253 -1.470083899849941 -4.53890927611633
-2.9966515628258548 -1.4051140233501076 -4.5278693909111345
-1.99510356455533 -1.4474389548225934 -4.376294765738511
-1.0506277017753172 -1.5431951311370324 -4.021954351418979
-0.25160457286195637 -1.6083012556674696 -3.4047282513962256
0.25389534710351497 -1.5140236614281928 -2.5360193815275873
0.3847300486085419 -1.1765743667036013 -1.5921741718094868
0.2550648605294618 -0.6462659066457263 -0.7387119014092192
0.0 0.0 0.0
-0.30829646304213276 0.7117975513680149 0.6536904897318537
-0.6373075195354181 1.453376724768401 1.2630678311204244
-0.9736854470353736 2.191216436626147 1.8727921191342347
-1.31232473766377 2.8858732795506294 2.529955088821098
-1.6456146545418238 3.4837698662249097 3.278035260714263
-1.9525312482777735 3.9180737389785554 4.140733423127738
-2.1946582829830543 4.127309057222324 5.101877472235054
-2.329574110044487 4.085949806241568 6.104907693028248
-2.3329117278069664 3.8174763131127367 7.081970910821935
-2.2030890708900794 3.374147803255875 7.984205363523445
-1.953341279822477 2.812544198327593 8.79062961802867
-1.6051943214468405 2.1812687370294084 9.50405423955371
-1.1866312610121112 1.516140604847906 10.145600311632732
-0.7312107899866029 0.8391042913857137 10.748641584668256
-0.27440063745522186 0.1638451361791904 11.352488017997299
0.15288890150514498 -0.4931977493964076 11.996620362748617
0.5299366867987688 -1.100614408970989 12.716069721138945
0.8500278864735689 -1.6000375341193398 13.538218131158583
1.1199918489385476 -1.8863940065518219 14.471310968346392
1.3604161897327267 -1.80536286069507 15.449275417402415
1.5778245587172073 -1.3051302639576425 16.300118199364682
1.7600797012545126 -0.5358544441819997 16.933481338802267
1.896392642952177 0.3548027446235498 17.398854520158967
1.9751835922367895 1.2948933797590405 17.771739444998303
1.9811738804419377 2.249328087677959 18.11568079013276
1.8998551316105499 3.192362308280379 18.480245800543063
1.7287355661347077 4.100805353803638 18.89772448792139
1.4900432866339912 4.962536440698294 19.37682237723704
1.230103658709571 5.789519956370564 19.90506745192786
1.0083675235643255 6.612057383073909 20.45805593671446
0.8833157146265255 7.429650422694222 20.987487262013268
0.918685411437594 8.340611431894077 21.498685557154463
LINES 1 65
64 0 1 2 3 4 5 6 7 8 9 10 11 12 13 14 15 16 17 18 19 20 21 22 23 24 25 26 27 28 29 30 31 32 33 34 35 36 37 38 39 40 41 42 43 44 45 46 47 48 49 50 51 52 53 54 55 56 57 58 59 60 61 62 63
POINT_DATA 64
SCALARS MaximumInscribedSphereRadius float
LOOKUP_TABLE default
0.6200000047683716
1.01350998878479
1.2719500064849854
1.3366400003433228
1.1540499925613403
0.9300000071525574
0.9300000071525574
1.0628600120544434
1.2144399881362915
1.2400000095367432
1.2400000095367432
1.2251800298690796
1.022189974784851
0.9300000071525574
0.9300000071525574
0.9300000071525574
0.9300000071525574
0.9300000071525574
0.9300000071525574
1.0743199586868286
1.2338999509811401
1.2400000095367432
1.3717900514602661
1.5807700157165527
1.7000700235366821
1.6859099864959717
1.5297199487686157
1.323449969291687
1.7746000289916992
1.9469300508499146
1.6435699462890625
1.7464799880981445
1.8600000143051147
1.8600000143051147
1.7404299974441528
1.5833699703216553
1.5495599508285522
1.4692800045013428
1.2637300491333008
1.2400000095367432
1.1703599691390991
1.0734800100326538
1.45864999294281
1.8291900157928467
1.6166000366210938
1.5499999523162842
1.592579960823059
1.7634600400924683
1.8600000143051147
1.8426799774169922
1.6621400117874146
1.7353700399398804
1.858739972114563
1.3827099800109863
1.5281000137329102
1.7766300439834595
1.6592700481414795
1.6285099983215332
1.8213000297546387
1.5453100204467773
1.2711600065231323
1.2457300424575806
1.363860011100769
1.5499999523162842
