# vtk DataFile Version 2.0
Vessel Segment
ASCII
DATASET POLYDATA
POINTS 64 float
-2.311962199551737 -8.237190424692177 -1.312372184449214
-1.5709296302168503 -8.128276216547349 -2.012317781609253
-0.952221956943005 -7.943422886260579 -2.7816549655888503
-0.4041467094623447 -7.6260543146407915 -3.571470718929059
0.08347763080361487 -7.124006181882384 -4.303647575103176
0.5233662466673615 -6.408297854992027 -4.8675209698488295
0.9301038270677576 -5.525460478954867 -5.146786523271386
1.3093366582802983 -4.586229704382634 -5.1385792010105735
1.6511107304454111 -3.6507119922547977 -4.94759848723957
1.8948919518602387 -2.69878934327841 -4.698135426483194
1.8364007844602135 -1.7073418270647387 -4.526115673549223
1.2595473693522863 -0.8845418161398124 -4.527152194207793
0.4002638828968496 -0.3501304483192769 -4.566484453665596
-0.541322918722161 0.02169362908362826 -4.512762934662254
-1.4913362831204682 0.31080640394044295 -4.30907066980829
-2.4051118899361925 0.539124546615144 -3.9345713427808877
-3.2660026065618823 0.6738172061401676 -3.4164229376782007
-4.104899006103586 0.6525625806767148 -2.847744999471757
-4.956713525801203 0.46793764125134646 -2.329710226133451
-5.816016506945985 0.18507463900801369 -1.8707427620513424
-6.653788691293657 -0.14092968687084537 -1.4013767010936515
-7.343380274172985 -0.4756456391134128 -0.7418981367622853
-6.796452996889044 -0.43023647212879873 -0.043688922649452185
-5.837352192391053 -0.14836787603974347 0.07635799389880539
-4.8843192576696675 0.16334098124132151 -0.06783095959939847
-3.9917539860111044 0.43799949922611775 -0.4591286396934775
-3.189693376094942 0.5723448799173516 -1.0625074480260113
-2.4104311361510113 0.47498363070700766 -1.7015816874845615
-1.5159696732446466 0.16805281961267798 -2.0464842950151776
-0.602064065662572 -0.1436752926292334 -1.7824753838650176
-0.013758720544366422 -0.22346851402699872 -0.9769840475469813
0.0 0.0 0.0
-0.43188677547803245 0.4198217359382525 0.8115585083547175
-1.0227298418333344 0.9388101761767087 1.4516235823969652
-1.588502100697114 1.5422188237357455 2.0383929361476567
-1.9821685001806255 2.220356120868277 2.679198614399104
-2.1196727608790464 2.9022776113687794 3.414919997298496
-2.0387292288423664 3.489893369110449 4.2359591209054726
-1.802525808379948 3.8725939823535107 5.142356017793125
-1.465509527168702 3.8925016347709738 6.0932957610059715
-1.1189220614504174 3.519881518791147 6.967258630178954
-0.8181320735729509 2.9238453567974596 7.7301869024208285
-0.5515168647325777 2.2421278751623617 8.4326128118785
-0.28585708445617924 1.536547354874328 9.111571888599771
0.011117583789402245 0.8253663270599905 9.771334495311109
0.3510749252578276 0.10477983939336866 10.399389621850434
0.7158802307169614 -0.6200327483011135 11.008479697185622
1.078478003891045 -1.3135766008470269 11.653809598465283
1.42496684065358 -1.8973198264083677 12.40613620842141
1.757829594454515 -2.237016147939265 13.29845349640546
2.0783701891279986 -2.2035450008075674 14.255696985969932
2.366405993624356 -1.8136959282128404 15.143770233430926
2.597447195666366 -1.1879483401347766 15.906270537700884
2.7550656650944214 -0.42774530678521266 16.558502038084406
2.827121571916363 0.40327504023332955 17.135381437275555
2.80887880905915 1.263409789235198 17.67274351243286
2.718680125292028 2.1238824926219193 18.202669518970247
2.5949815973760804 2.9695101333968594 18.749390819137115
2.4637949156977794 3.7967439295702334 19.321956882034577
2.320108172266887 4.614228887683647 19.90541116940655
2.132651527433616 5.443447050153702 20.458725059333624
1.8541275769391539 6.306234134238103 20.90914336432384
1.447243739204275 7.189343668640794 21.156265161028777
0.906033394983814 8.057742354435756 21.13007481248615
LINES 1 65
64 0 1 2 3 4 5 6 7 8 9 10 11 12 13 14 15 16 17 18 19 20 21 22 23 24 25 26 27 28 29 30 31 32 33 34 35 36 37 38 39 40 41 42 43 44 45 46 47 48 49 50 51 52 53 54 55 56 57 58 59 60 61 62 63
POINT_DATA 64
SCALARS MaximumInscribedSphereRadius float
LOOKUP_TABLE default
1.3143999576568604
1.2561800479888916
1.2595000267028809
1.1997499465942383
1.0217700004577637
1.641379952430725
1.3302899599075317
0.9796000123023987
1.0134999752044678
1.3268100023269653
1.0711499452590942
0.903652012348175
1.238219976425171
1.4623600244522095
1.2538399696350098
1.2400000095367432
1.4375300407409668
1.4531999826431274
1.2975000143051147
1.5861999988555908
1.378309965133667
1.4493600130081177
1.3789399862289429
1.2584500312805176
1.3906400203704834
1.6209399700164795
1.7788699865341187
1.3667500019073486
1.455970048904419
1.5499999523162842
1.3745900392532349
1.3827600479125977
1.4674500226974487
1.2586400508880615
1.1524399518966675
1.3714499473571777
1.6411499977111816
1.571869969367981
1.7922500371932983
1.6668699979782104
1.5499999523162842
1.4896299839019775
1.3175100088119507
1.4682799577713013
1.6048200130462646
1.7126100063323975
1.837030053138733
1.7180500030517578
1.6078699827194214
1.7723100185394287
2.1286399364471436
1.630560040473938
1.5499999523162842
1.4509299993515015
1.3577500581741333
1.5581400394439697
1.5596400499343872
1.831719994544983
2.1700000762939453
2.166980028152466
1.7216700315475464
1.3941500186920166
1.4136099815368652
1.8600000143051147
