# vtk DataFile Version 2.0
Vessel Segment
ASCII
DATASET POLYDATA
POINTS 64 float
-0.9484346017151339 -7.29144715358524 -3.2203013542895764
-0.82306263482221 -7.731439642462282 -4.129880221047521
-0.4300375836336809 -7.804618218268594 -5.049319705879191
0.1025983395893199 -7.522818295384345 -5.8600389415961684
0.6459510284679996 -6.94767553514334 -6.4899312901998325
1.1028167671439209 -6.134820340579102 -6.879942868167078
1.409128243671241 -5.175565699605448 -6.968751834275139
1.5722236201150137 -4.194906804141449 -6.776653485446725
1.626249509186891 -3.255908206797111 -6.398541438176188
1.4836747832108537 -2.363091895811105 -5.943948738311522
0.8611121675351083 -1.6611123553154608 -5.596007869921967
-0.054247865473517204 -1.2930058943059002 -5.367870459730052
-1.0011721653714682 -1.0946187414177582 -5.06520471305765
-1.9088438609008125 -1.0026050641411237 -4.62338092026407
-2.7589842357099146 -1.0140923373118818 -4.070782089886787
-3.5727213981918866 -1.1406525818138444 -3.478827541653715
-4.372746002061252 -1.3751684057480011 -2.9010317733330178
-5.153786296819179 -1.6735326384723144 -2.3263539203177532
-5.88502594993637 -1.9642085514669927 -1.6867133624173112
-6.472402506212081 -2.1174847179198255 -0.8789032034505275
-6.568624971683939 -1.8338714774447717 0.06036939399841539
-6.034143668545768 -1.153936087637088 0.5628514735949683
-5.3023278378882 -0.45965054348902634 0.5486950919488583
-4.550353690341898 0.08656643551009881 0.15299523088263078
-3.8270066432305994 0.3463507563729765 -0.502596864759251
-3.133261752807978 0.25365082064847977 -1.2325673279681308
-2.4383827236498474 -0.11228928719989999 -1.8722434547181335
-1.6785222367197363 -0.6004091320855963 -2.3304972935878956
-0.761862822367179 -0.9992560184486536 -2.420524197469016
-0.022967693103799834 -0.875090361956379 -1.787617306355166
0.16515897668571888 -0.44580250981694824 -0.8931507595174346
0.0 0.0 0.0
-0.4724651358478614 0.3902785100990472 0.804476654994363
-1.198328304899143 0.7358674303027635 1.4194440929939205
-2.0320341645770537 1.1365112877563857 1.8334695604285054
-2.789119582046186 1.7192753444899138 2.1677287774726666
-3.2508710192375383 2.4958035052270113 2.615843550017232
-3.3039624604401063 3.241597872127127 3.291706846166126
-3.04662109849689 3.7208350599886555 4.1424011211790805
-2.6297259546759846 3.8854539474916487 5.049559871415285
-2.143328769649521 3.802259314876332 5.934646109380194
-1.6161337604010158 3.561116579851007 6.766687608950248
-1.0503854225237572 3.2310707898050604 7.54121900717571
-0.45090261565244244 2.8407205351059606 8.260410396008327
0.15762269601541748 2.374524981360439 8.92457869980637
0.7330072601043528 1.8134571835263895 9.54330479244558
1.248146347361733 1.1920072680724343 10.157818655577294
1.7175423184925405 0.5977516196386307 10.83241318911405
2.1726520499221533 0.12948381571741624 11.60742738234988
2.628720940035393 -0.12649507790314699 12.47461969493189
3.0729627929447205 -0.11616347916203347 13.384238702050661
3.467811947275834 0.15672455805729468 14.276068158212729
3.77126806420774 0.6465372459025859 15.109337204141644
3.958526710455329 1.3021351699667334 15.858978502500593
4.033192426247331 2.0744926981056193 16.511366673429084
4.016584710523866 2.9134937583637224 17.08106918787787
3.9225143819608714 3.7771258797527567 17.60493786867242
3.7342592406820976 4.638380347249327 18.10619482322374
3.399152482778492 5.472843927463243 18.573835972761287
2.8694280562737773 6.240442900051995 18.96919814010521
2.1723724209969304 6.9138087423059496 19.265716793018054
1.3854883802346734 7.510647633657419 19.49179852794565
0.5722578702725184 8.06114624779707 19.712101251592934
-0.23695726258178387 8.605844670684657 20.022379789061958
LINES 1 65
64 0 1 2 3 4 5 6 7 8 9 10 11 12 13 14 15 16 17 18 19 20 21 22 23 24 25 26 27 28 29 30 31 32 33 34 35 36 37 38 39 40 41 42 43 44 45 46 47 48 49 50 51 52 53 54 55 56 57 58 59 60 61 62 63
POINT_DATA 64
SCALARS MaximumInscribedSphereRadius float
LOOKUP_TABLE default
0.9300000071525574
0.6951649785041809
0.9774010181427002
1.3642200231552124
1.4088900089263916
0.9068650007247925
0.6467310190200806
0.8591510057449341
1.127369999885559
1.1587200164794922
0.9938390254974365
1.427780032157898
1.2568800449371338
1.1789499521255493
1.1381900310516357
0.9559999704360962
1.102720022201538
1.253980040550232
1.428130030632019
1.5499999523162842
1.8506900072097778
2.008049964904785
1.8602499961853027
1.8662500381469727
1.8794499635696411
1.8533200025558472
1.6778700351715088
1.550920009613037
1.5499999523162842
1.6050900220870972
1.408400058746338
1.014389991760254
1.504930019378662
1.3197100162506104
1.5957200527191162
1.8600000143051147
1.537969946861267
1.0872900485992432
1.5739099979400635
1.7755500078201294
1.4281200170516968
1.7786500453948975
2.0554099082946777
1.868980050086975
1.8600000143051147
1.8822200298309326
2.0836000442504883
2.1700000762939453
2.086549997329712
1.9117499589920044
1.7793099880218506
1.805690050125122
1.8408199548721313
1.6713800430297852
1.825410008430481
2.1700000762939453
2.1265499591827393
1.9106199741363525
2.1126298904418945
2.1700000762939453
2.502779960632324
2.353149890899658
1.4996700286865234
1.2400000095367432
