# vtk DataFile Version 2.0
Vessel Segment
ASCII
DATASET POLYDATA
POINTS 64 float
-5.3042429882081965 -14.328935876300108 -0.648341787102641
-4.687323305301555 -14.501822529924794 -1.475836079864451
-4.053176891235728 -14.54539203481172 -2.21250114262409
-3.3358929764162073 -14.449966716239521 -2.938715186435138
-2.5956591459938467 -14.159721310667924 -3.5650242313086156
-1.8708765066368895 -13.654947994179466 -4.062534194701341
-1.2196876524220002 -12.960021659039942 -4.410134403107029
-0.6748889051148956 -12.133514575361955 -4.630632791695301
-0.23692925211765697 -11.22972218286134 -4.7734104735006015
0.10671138535955654 -10.282797587048517 -4.893593210138243
0.36415198558465167 -9.313424360161946 -5.045911245293998
0.5288341554343453 -8.340259907073268 -5.279729931636402
0.5777789991904244 -7.38594153711031 -5.6195025170556825
0.4838663047648873 -6.470586535007149 -6.046027751551949
0.22796038087546494 -5.607430925666239 -6.512931247316081
-0.19679233958850773 -4.803207008344646 -6.961618119087572
-0.7846429063663055 -4.06403048694957 -7.330860175461691
-1.5138239391819213 -3.4005645550438253 -7.568056309593346
-2.3455816142614863 -2.8248940745449453 -7.638397247602727
-3.229987376838754 -2.3406425996397235 -7.53077095872369
-4.117319453040125 -1.9398185327337094 -7.2468826693309385
-4.952729823736828 -1.609077060988151 -6.777594232933155
-5.635129198016054 -1.340602040604386 -6.079157552751077
-5.8386149060825305 -1.1704443061264325 -5.110476103310549
-5.338174400279882 -1.1529807455539511 -4.229255555039812
-4.560479822781374 -1.198304912220868 -3.581521170310898
-3.7101887051916593 -1.2355447329014504 -3.029004675930791
-2.848175145826644 -1.2236102508693476 -2.4941500353899992
-2.0097829480597733 -1.124187221026145 -1.9317762570534016
-1.2310129383656607 -0.9002860534285235 -1.3218381909898298
-0.5510311448139481 -0.5259290850853843 -0.6693233658045833
0.0 0.0 0.0
0.4117103305406219 0.6537546247035162 0.6570548550334148
0.6883610726091116 1.4011760469398982 1.284410523531739
0.840397288772976 2.2055434973833186 1.8834480057944936
0.8790729072252887 3.03075339934096 2.472180766567659
0.8151976763010783 3.840742749999279 3.0796490022823506
0.6620773869425062 4.595902801371352 3.7394394730933858
0.43973841010740383 5.252231495723872 4.479965828210474
0.1805471358283843 5.768529556510706 5.313533257866774
-0.0738722757566064 6.119097328484351 6.23044666684136
-0.28231747531316237 6.302057630360375 7.205992344495691
-0.414854983892359 6.333328639144427 8.210998271159735
-0.4581177587697954 6.236035769016416 9.219713359564834
-0.416823516382899 6.031871966239814 10.21250945792415
-0.3094907148741441 5.737309574393705 11.177306407668949
-0.16211766157136623 5.362726964281863 12.108519821478685
-0.0043818708095742075 4.914096212881711 13.004689668878774
0.13512955791757417 4.397957978891495 13.866896338644787
0.23503417391132958 3.827868644821296 14.700115292475607
0.28777374166917685 3.226625995199189 15.515645387274512
0.30134685957110713 2.6248656637166263 16.33243658520984
0.29395424532397574 2.055856580202029 17.17239851423085
0.2872188030954106 1.5548133094691097 18.054413878013367
0.3020727073867749 1.161076583740187 18.989081385942626
0.35375479845794117 0.9208551224803333 19.9730437119206
0.4476200806713704 0.8850294795176904 20.98196408529398
0.5741936677394247 1.0936527173659623 21.9657201662963
0.7092894374263206 1.5501771309557364 22.860604385380945
0.8238662135202229 2.21147115981135 23.62076041145117
0.8962811556488617 3.0121287169238946 24.236130734066823
0.9099326533849961 3.9158440759338524 24.720255780530326
0.8660004676172536 4.821633440111283 25.073177663154617
0.7331522580463473 5.8279232861697405 25.327884961682333
LINES 1 65
64 0 1 2 3 4 5 6 7 8 9 10 11 12 13 14 15 16 17 18 19 20 21 22 23 24 25 26 27 28 29 30 31 32 33 34 35 36 37 38 39 40 41 42 43 44 45 46 47 48 49 50 51 52 53 54 55 56 57 58 59 60 61 62 63
POINT_DATA 64
SCALARS MaximumInscribedSphereRadius float
LOOKUP_TABLE default
1.1160000562667847
1.038450002670288
0.9631639719009399
0.9484670162200928
0.9754089713096619
0.9552320241928101
0.9916980266571045
1.2233799695968628
1.3391300439834595
1.2797499895095825
1.1671899557113647
1.0457500219345093
1.101330041885376
1.252150058746338
1.1124299764633179
1.0222300291061401
1.153130054473877
1.232159972190857
1.2400000095367432
1.259559988975525
1.3023699522018433
1.4007200002670288
1.5097899436950684
1.3336000442504883
1.6465100049972534
1.7649400234222412
1.6095999479293823
1.7148499488830566
1.8717999458312988
2.043440103530884
2.0259499549865723
1.7243399620056152
1.7174400091171265
2.0216801166534424
2.065540075302124
1.9029699563980103
1.8600000143051147
1.8212900161743164
1.5692299604415894
1.2967599630355835
1.2400000095367432
1.278939962387085
1.447909951210022
1.47393000125885
1.318019986152649
1.5291099548339844
2.011270046234131
1.9996399879455566
1.6524300575256348
1.7011200189590454
1.8657200336456299
1.8718500137329102
1.9040100574493408
2.040489912033081
2.074049949645996
1.6466200351715088
1.4309500455856323
1.5244699716567993
1.5499600172042847
1.56358003616333
1.7133599519729614
1.7594799995422363
1.5356800556182861
1.2400000095367432
