# vtk DataFile Version 2.0
Vessel Segment
ASCII
DATASET POLYDATA
POINTS 64 float
-2.3712950514261455 -18.633484104086023 -2.3096657914557253
-1.9503139891961585 -18.078195047969736 -3.0932794457751527
-1.525396345302798 -17.487817272873656 -3.7397581504915145
-1.0911190919398102 -16.78595994863099 -4.342529368432451
-0.7126112625511749 -15.997579251283376 -4.855706916479579
-0.4080216596547412 -15.134533247702882 -5.292703726520324
-0.1689957103837982 -14.224355610530692 -5.671848417646657
0.02155474427081971 -13.29080462756394 -6.020472181075518
0.1612220317766552 -12.348993262423525 -6.370878916288298
0.2099667550321687 -11.411436260061032 -6.754880584921763
0.08590007336533478 -10.502739781866689 -7.186648457411863
-0.3000219698075207 -9.675906418147331 -7.626439974683152
-0.942803657431302 -8.97739109551249 -7.980731488854282
-1.7529092328490987 -8.402372864202205 -8.182621494555802
-2.6458501195136743 -7.923155795938658 -8.217937201669182
-3.56669405858131 -7.51705419432639 -8.094566617999455
-4.4784036034765045 -7.168187518244241 -7.8176024986893315
-5.333543869103823 -6.8637394375087375 -7.3642336115581255
-5.908856430415944 -6.5891555814052145 -6.585532911085855
-5.438136053288016 -6.449143284587058 -5.767129786591808
-4.50590834105969 -6.4124276093964205 -5.349427144625114
-3.5378739409173203 -6.360524442874818 -5.046698550399597
-2.57290953559294 -6.247584442397725 -4.756340496291123
-1.6466431570239866 -6.019387295909346 -4.412351023383746
-0.8414647169251654 -5.606153338133173 -3.9574479571947947
-0.2816242256952439 -4.984830252394359 -3.3872685654715613
0.007686434731688043 -4.232518987972781 -2.7724285727199973
0.11838554258134087 -3.4244040033262233 -2.1694772741752884
0.13454851538320833 -2.5885991083635895 -1.594721238640362
0.10544271122284357 -1.7339617831692367 -1.0486303385037394
0.05697149272544591 -0.8674353403126286 -0.5230877622098354
0.0 0.0 0.0
-0.06507348916435071 0.8491129493380111 0.5514001616222483
-0.14440889721792632 1.6467687444856196 1.1730689169344095
-0.24382333863823483 2.341085411107614 1.9054506160148097
-0.35980305090926074 2.8685074263158494 2.7632957916723586
-0.4750717914026701 3.18528864680311 3.719307940890292
-0.5672692328424039 3.2936802031573795 4.723193071647521
-0.6211883483083357 3.2291340892949822 5.7338927866790135
-0.6318476324570746 3.0335917243906327 6.729177215301896
-0.6004394901511015 2.7414014587557833 7.700136151341847
-0.5306807919950512 2.3790307322493103 8.645152152875898
-0.4258619726664883 1.9671859113912278 9.566417774280369
-0.28739236689563225 1.5265025122592155 10.469727658326844
-0.1148235711660582 1.0792325120516584 11.363898234133492
0.09250495505376469 0.653128922176348 12.260996171385369
0.33326843375201987 0.28213231490897817 13.174006548988807
0.6021157539681223 0.010109168763180689 14.113462270292572
0.8882404935294745 -0.10631247372001529 15.079340397814015
1.172277295954388 -0.0065205231344434254 16.0471959293917
1.428267632574555 0.3423465205387987 16.963491336960878
1.6347690698611292 0.9161745299939602 17.77321147924908
1.7826064717780612 1.6542093259266755 18.452570474443537
1.872796667006993 2.4973167738456588 19.00906923328208
1.9103157237822206 3.4028826788386373 19.464754159878442
1.9006522302024793 4.343939746467798 19.843525052449518
1.8487052515886593 5.304110920039022 20.166937453711334
1.758635036937008 6.273049815110695 20.454105425983887
1.6341288844340103 7.243646971672368 20.72224008237285
1.4799202244126164 8.210941439599967 20.985986985996345
1.3027563279431704 9.172766718268898 21.254738145979687
1.110278719981652 10.136888582653135 21.535951985993474
0.923078823380448 11.050179305532374 21.8140303251954
0.727783553871618 12.03169251241347 22.127978843721337
LINES 1 65
64 0 1 2 3 4 5 6 7 8 9 10 11 12 13 14 15 16 17 18 19 20 21 22 23 24 25 26 27 28 29 30 31 32 33 34 35 36 37 38 39 40 41 42 43 44 45 46 47 48 49 50 51 52 53 54 55 56 57 58 59 60 61 62 63
POINT_DATA 64
SCALARS MaximumInscribedSphereRadius float
LOOKUP_TABLE default
0.9300000071525574
0.9300000071525574
0.9300000071525574
0.9300000071525574
0.9552860260009766
1.0384999513626099
1.2181999683380127
1.1264300346374512
1.067710041999817
1.4800100326538086
1.6146999597549438
1.3897199630737305
0.804610013961792
0.9120630025863647
1.2172399759292603
1.2400000095367432
1.1810599565505981
1.0302200317382812
1.3383100032806396
1.7091799974441528
1.4875099658966064
1.3028700351715088
1.4594800472259521
1.549239993095398
1.5499999523162842
1.5499999523162842
1.6378599405288696
1.7893600463867188
1.7375199794769287
1.5812599658966064
1.6987199783325195
1.8347500562667847
1.8600000143051147
1.8600000143051147
1.84375
1.7140799760818481
1.560789942741394
1.544469952583313
1.4521600008010864
1.2714600563049316
1.3105800151824951
1.3975499868392944
1.4892300367355347
1.5498199462890625
1.5499999523162842
1.5499999523162842
1.5499999523162842
1.5499999523162842
1.6252100467681885
1.8609100580215454
1.7971199750900269
1.5586999654769897
1.380679965019226
1.332669973373413
1.488700032234192
1.6546399593353271
1.8306399583816528
1.8600000143051147
1.8147000074386597
1.6559499502182007
1.6290700435638428
1.7832000255584717
1.7261500358581543
1.5499999523162842
