# vtk DataFile Version 2.0
Vessel Segment
ASCII
DATASET POLYDATA
POINTS 64 float
-10.52323682772149 -13.796331266770315 -1.3243950616780369
-9.592714311342407 -13.330991329360147 -1.4402959716292933
-8.65975103571741 -13.055505167737582 -1.4730042454293588
-7.6482865180497255 -12.89232332273246 -1.4678111957160846
-6.636415817115549 -12.84877305657477 -1.4443673351278985
-5.622458990230637 -12.88248506804707 -1.4335773865388592
-4.610775917050039 -12.954983898692827 -1.459616605451732
-3.6017586596491817 -13.023702687883116 -1.5398276813932403
-2.59712596855016 -13.042769255822334 -1.6795474353212445
-1.6033389454719746 -12.96702237721602 -1.8683426978869215
-0.6331044752371399 -12.757489363601342 -2.0769169537743832
0.29344668109145133 -12.387789055494567 -2.25930459857535
1.1492206545053658 -11.85363531486267 -2.361604763708777
1.9079500943376702 -11.181308593868923 -2.3399543419633306
2.5612745347851535 -10.421745098327449 -2.182709674089772
3.1240673317485026 -9.622674841915973 -1.9110856095368225
3.620930603793158 -8.80982473127854 -1.5623786936600794
4.072945754538085 -7.985057875515099 -1.1817694607588736
4.487095743275119 -7.131677904774717 -0.8218685453365268
4.8446391976902445 -6.222562337503827 -0.5489036268672685
5.083334807635838 -5.243771048306495 -0.43803018417893574
5.107603335771334 -4.2350915948223085 -0.5284210606338086
4.859889856524951 -3.286243667340125 -0.7830560602038226
4.376994924535979 -2.456939861297858 -1.1099689287736154
3.7307171336168525 -1.7458671232245877 -1.4345645965318687
2.976136629015564 -1.1295742430189863 -1.7168586932546643
2.1479035665882797 -0.585562852693797 -1.933244066805004
1.26565997069993 -0.0966574773029527 -2.058273217757842
0.36074524659066093 0.33650992746507163 -2.0431851541318427
-0.5402520930230443 0.675934468775322 -1.6729365622675274
-0.5507130905398391 0.45388391519996557 -0.7149384657159839
0.0 0.0 0.0
0.6268558844703848 -0.4753914880766849 0.6414581558973131
1.2771254856287242 -0.93324124585504 1.2713334389198667
1.9212338464508087 -1.3275978029897322 1.9486411922649316
2.5338262070239708 -1.5840622615275446 2.7149047297849753
3.072220827765724 -1.607408190399241 3.5728332173211044
3.4937197801714643 -1.3614863662697656 4.460997654542085
3.7929996215139576 -0.9101130642823885 5.318315704690847
3.985687232247969 -0.33610348339569956 6.132129875014403
4.079718400528093 0.3021825859061804 6.915005181164449
4.073285107271237 0.962245902432114 7.685291828405423
3.9616261570037694 1.604776770105419 8.46227298643663
3.744981584391022 2.187334555086795 9.263932990868087
3.4354342803032125 2.6637990815286745 10.104128890470337
3.058305914425523 2.988819685400695 10.987583086870439
2.648890396198541 3.1309124302184297 11.904369453974514
2.2389340769411774 3.083664380487913 12.830666387127266
1.8454097398404454 2.8649813668632786 13.739496588454864
1.4672955285709575 2.5077277394880957 14.610356636488703
1.0908807324613525 2.0491002901910234 15.433273519420283
0.6982541280970804 1.5240962917652787 16.207510138617796
0.2765362435571586 0.9615398491761448 16.939013117183855
-0.1751491451596057 0.38254173547144504 17.639034131261106
-0.6444332792935095 -0.2008585805851055 18.32378560741866
-1.1110516812748406 -0.7830727860445518 19.01135153578156
-1.5539036452900234 -1.3602915787717158 19.718480788562648
-1.9581109329954836 -1.924944206862891 20.458160079126376
-2.320044180130696 -2.462062806271613 21.239086202790492
-2.6475431576449706 -2.947767188977414 22.0673972135584
-2.9575815615148384 -3.3462251641140903 22.94583818967726
-3.27944714975063 -3.5995972799808214 23.883730332912748
-3.609998841439653 -3.6624517223072957 24.798245755738783
-4.0096228200553465 -3.449743046664647 25.74147878502353
LINES 1 65
64 0 1 2 3 4 5 6 7 8 9 10 11 12 13 14 15 16 17 18 19 20 21 22 23 24 25 26 27 28 29 30 31 32 33 34 35 36 37 38 39 40 41 42 43 44 45 46 47 48 49 50 51 52 53 54 55 56 57 58 59 60 61 62 63
POINT_DATA 64
SCALARS MaximumInscribedSphereRadius float
LOOKUP_TABLE default
0.9300000071525574
1.1218600273132324
1.156149983406067
0.9828420281410217
1.0944199562072754
1.2400000095367432
1.2319300174713135
1.0228099822998047
0.6543290019035339
0.7951310276985168
0.9300000071525574
0.9300000071525574
0.9300000071525574
0.9300000071525574
0.928708016872406
0.8470410108566284
0.6722229719161987
0.7413359880447388
0.8941980004310608
0.9300000071525574
0.9300000071525574
0.9300000071525574
1.210819959640503
1.258620023727417
0.9617699980735779
0.9668999910354614
1.0923399925231934
1.195199966430664
1.3303099870681763
1.463670015335083
1.2400000095367432
1.1736299991607666
0.9851679801940918
1.0729299783706665
1.2400000095367432
1.2400000095367432
1.2400000095367432
1.2400000095367432
1.2467399835586548
1.367069959640503
1.5473999977111816
1.725469946861267
1.8600000143051147
1.8525199890136719
1.7547399997711182
1.583340048789978
1.5499999523162842
1.5565400123596191
1.5424799919128418
1.2880200147628784
0.9537699818611145
0.9693560004234314
1.1329699754714966
1.4491000175476074
1.404729962348938
1.2623599767684937
1.4657399654388428
1.486649990081787
1.2872999906539917
1.2750799655914307
1.4766499996185303
2.228940010070801
2.1640100479125977
1.5499999523162842
