# vtk DataFile Version 2.0
Vessel Segment
ASCII
DATASET POLYDATA
POINTS 64 float
-5.346179445530143 -14.371326112683043 -2.52253860034492
-5.2343119351629355 -14.01775160995236 -3.4750978908363286
-4.967875595951881 -13.566830431399886 -4.330847508835892
-4.482300937883393 -12.981810729617221 -5.008337047466351
-3.8014048043758013 -12.312578906171467 -5.347831001680165
-3.0456730833823698 -11.63628379476167 -5.38463478416128
-2.2905635861862446 -10.973779587427686 -5.242956747286918
-1.557734342156908 -10.308671158682083 -5.019244744827838
-0.855139189196578 -9.618310398825125 -4.775971902328332
-0.1931843520301839 -8.879634215303017 -4.562431324494092
0.4055615828507809 -8.072441509754944 -4.423531534597122
0.8990423271661162 -7.186311514199111 -4.399724782152852
1.2215824792668575 -6.231885099488746 -4.518404008665744
1.2955664185043543 -5.254457898136239 -4.778626135662133
1.073270352324125 -4.330229349587393 -5.131826787192784
0.5786824003479591 -3.524471210396601 -5.49951496690354
-0.11366291104481635 -2.854987059496587 -5.818566488199136
-0.9309220026814788 -2.3038125229615294 -6.058518518134027
-1.8211984777841783 -1.8413129735739888 -6.21015025282267
-2.749751388075555 -1.4373080133104135 -6.270655966622077
-3.6933774710460905 -1.0650187924334444 -6.234712670473722
-4.623937839993983 -0.696502069256659 -6.076191386718425
-5.501826842204875 -0.3027765286398022 -5.7502406695971855
-6.037286685446221 0.17189380505905405 -5.018654374224571
-5.696578308137217 0.4806663642063915 -4.145908153802455
-4.93615502274169 0.5737134043468062 -3.4665662330368363
-4.093123205928129 0.5619994501005167 -2.9054832188465425
-3.223877584674299 0.489378981625196 -2.3865019917037573
-2.3579177372703692 0.37530012912674054 -1.8703909420619622
-1.5153425316107791 0.23721934421212662 -1.3222634408651204
-0.7192728563563847 0.09919442903465701 -0.7085980692117275
0.0 0.0 0.0
0.6075348461077353 -0.003377129818336653 0.8124699714745487
1.0821033989577196 0.1474347016536253 1.6962804166700807
1.435498451611298 0.47995880326291723 2.5872288160905232
1.706254092173971 0.9771319373878997 3.4291782349447217
1.93204144398648 1.5980175662281384 4.199109944513834
2.135665592659112 2.3024277214394857 4.900371607515342
2.3254943446310072 3.0578478664849467 5.550573653251964
2.498357677313856 3.8377297732403357 6.176136381914295
2.641479689172936 4.617121897727264 6.809733553851296
2.7322754423776923 5.36526991471716 7.48912578287269
2.73801254064318 6.032596664372306 8.253410953733828
2.6247438215349583 6.542053289457953 9.12300417471174
2.3876351193752825 6.820426950265458 10.068860167900667
2.068487496352743 6.861410380997592 11.031110153262931
1.7225240409940705 6.722255701620183 11.974751130112173
1.3879236845862075 6.465261492209632 12.897449328769541
1.0865819702234334 6.136266754628798 13.808696942322113
0.8305873363121995 5.767049268327505 14.71842048908198
0.6251174045637644 5.378690711126736 15.63293176591714
0.4695693908728668 4.983767772137167 16.554457998207237
0.3588084018164693 4.587505059998559 17.481873461566266
0.28391179114308984 4.187606180485371 18.411348154676485
0.2329758638306345 3.7763664031671347 19.337467740845504
0.19290694514185885 3.3448792753257104 20.254884842929105
0.15067431510569076 2.8885248664461267 21.16005804671395
0.09551116692881635 2.413586328270577 22.05501352477209
0.019805251435291136 1.9419193389328941 22.949915031115605
-0.081089042601317 1.5080656987864778 23.86211090376767
-0.20851535143921102 1.1561578616040777 24.80331315463104
-0.36265280201187905 0.936689910384561 25.786887593334725
-0.5330346745940934 0.8825226132864246 26.774088647371737
-0.7165036844285195 1.010532491850948 27.771505705277452
LINES 1 65
64 0 1 2 3 4 5 6 7 8 9 10 11 12 13 14 15 16 17 18 19 20 21 22 23 24 25 26 27 28 29 30 31 32 33 34 35 36 37 38 39 40 41 42 43 44 45 46 47 48 49 50 51 52 53 54 55 56 57 58 59 60 61 62 63
POINT_DATA 64
SCALARS MaximumInscribedSphereRadius float
LOOKUP_TABLE default
0.9300000071525574
0.9300000071525574
0.937345027923584
1.0647900104522705
1.2104899883270264
1.0480400323867798
0.9982730150222778
1.1649500131607056
1.3293700218200684
1.4615600109100342
1.4449000358581543
1.31850004196167
1.2771999835968018
1.3046000003814697
1.3236000537872314
1.174530029296875
1.07955002784729
1.2930799722671509
1.492110013961792
1.474810004234314
1.3653099536895752
1.2223600149154663
1.2807999849319458
1.4432899951934814
1.3721699714660645
1.266569972038269
1.3687700033187866
1.5289100408554077
1.4097199440002441
1.247380018234253
1.5664600133895874
1.7559700012207031
1.208739995956421
1.1529300212860107
1.5175100564956665
1.7225199937820435
1.8266500234603882
1.6840499639511108
1.6272599697113037
1.7631399631500244
1.7973300218582153
1.6272599697113037
1.4460200071334839
1.375920057296753
1.611799955368042
1.7821099758148193
1.6403100490570068
1.609220027923584
1.6980600357055664
1.5769699811935425
1.3145300149917603
1.1139999628067017
1.0218700170516968
1.2359100580215454
1.4917199611663818
1.5499999523162842
1.6177699565887451
1.7739299535751343
1.6703200340270996
1.3662500381469727
1.266219973564148
1.2423499822616577
1.3961999416351318
1.5499999523162842
