# vtk DataFile Version 2.0
Vessel Segment
ASCII
DATASET POLYDATA
POINTS 64 float
-3.0969478657473566 -14.37750700153339 -0.050673538949646664
-2.4544882894668385 -13.861571347072253 -0.6917706164612047
-1.831559524492335 -13.468520184804264 -1.344771548739148
-1.182835809762916 -13.075826596239276 -2.019027476551015
-0.5319460388921264 -12.636551640774268 -2.66219851487348
0.10506387563984805 -12.087902578991343 -3.2289871162247916
0.6870021400808264 -11.376003711862085 -3.6540307749342236
1.1465960349537747 -10.50156942290754 -3.876420890124913
1.43611537462096 -9.530998060770845 -3.9034301624285392
1.5414106283443239 -8.52893142549527 -3.7933823324399474
1.4458209883155047 -7.538280306917631 -3.601966132496689
1.1188332402814407 -6.60716452892716 -3.3731279361251474
0.5487250336972977 -5.801950784271339 -3.144143564637368
-0.2170343960532372 -5.172615287704055 -2.9336891457025676
-1.1036844440228526 -4.721565850784257 -2.738194974716894
-2.052497208751461 -4.42157583828737 -2.54241572947214
-3.0265349190116697 -4.235585323956475 -2.328768107526145
-4.003778024958362 -4.1242252780331805 -2.0801613265736907
-4.969139848223014 -4.045951504213294 -1.7781666208888307
-5.904400858880109 -3.953141375709163 -1.396734821913088
-6.766393271295785 -3.7781468872973205 -0.8935099033838388
-7.409145614212887 -3.3992358882852036 -0.2140459768476919
-7.44644024181618 -2.7166233183822714 0.5111145478977018
-6.877532520491597 -1.9802825903542218 0.9023573934212726
-6.082742481998151 -1.355509250162574 0.9472958042775919
-5.222764895686539 -0.865447991691801 0.7315562089994172
-4.358105661503166 -0.5227605640914761 0.3287061457958692
-3.498907004575047 -0.3287516734059006 -0.17380255035878087
-2.6139719537496786 -0.2615100019913934 -0.664672253084078
-1.6447431945921367 -0.26416876519105975 -0.9560271332223006
-0.6695041797122538 -0.20294073172112598 -0.7274392370563271
0.0 0.0 0.0
0.31562120395423265 0.2951852402920414 0.915363181961979
0.35736653819971087 0.6546879098635944 1.86180133035734
0.20271074861223717 1.0764556882903225 2.7707814921514355
-0.07324912077713454 1.5651863788018023 3.61553444776139
-0.3957131357677278 2.1146310189207806 4.40505390355015
-0.6945113116684348 2.6958983513218406 5.181095111302692
-0.9154097879266136 3.254905301972381 5.99798485612706
-1.023061448878378 3.707423653109252 6.898462905015326
-1.008813309562619 3.957434703995579 7.879948561674939
-0.9039443970880547 3.9651940633800176 8.887720629111143
-0.7549541957895304 3.765723241733903 9.870550592846792
-0.5914969552386788 3.414015960830868 10.807644018230215
-0.42196217866561037 2.951128958811602 11.694150157948888
-0.23876866649251688 2.3992232100655633 12.525299456780335
-0.028157653859058236 1.7691095800862793 13.291771994271544
0.21847132176174686 1.0722442139422739 13.986443435250477
0.495739982188548 0.32830916973447827 14.617969446884922
0.789122962018893 -0.43817115974935184 15.214537588132668
1.0835899709960355 -1.2013300267348619 15.814795886508687
1.3703938863070573 -1.9308504494031224 16.458680308453204
1.6461720659514711 -2.583243301307869 17.18452305353928
1.9090388154269768 -3.086021606277615 18.024219821610625
2.1583480015698067 -3.332679842269038 18.97377875154176
2.3868401467665783 -3.2353731029937554 19.95446611849969
2.5829554362590597 -2.81277366881623 20.85333098107866
2.7400518199252004 -2.164477772300761 21.616415439559216
2.8563605853551906 -1.3778566639157097 22.24557216485737
2.9306204785155727 -0.5074551249634612 22.760736229656214
2.961053404103147 0.41325272202226837 23.186944431400565
2.9455216271080156 1.3604967177878318 23.550314963649658
2.88418320543531 2.28859510378887 23.871465532454064
2.7487618472412616 3.258539133190642 24.234138711171134
LINES 1 65
64 0 1 2 3 4 5 6 7 8 9 10 11 12 13 14 15 16 17 18 19 20 21 22 23 24 25 26 27 28 29 30 31 32 33 34 35 36 37 38 39 40 41 42 43 44 45 46 47 48 49 50 51 52 53 54 55 56 57 58 59 60 61 62 63
POINT_DATA 64
SCALARS MaximumInscribedSphereRadius float
LOOKUP_TABLE default
0.9300000071525574
1.3282300233840942
1.503749966621399
1.3157999515533447
1.2400599718093872
1.2400000095367432
1.2400000095367432
1.1260900497436523
0.9784259796142578
1.1372599601745605
1.140679955482483
0.9850299954414368
1.1283999681472778
1.1464799642562866
0.9831730127334595
1.1002299785614014
1.1731599569320679
1.0244200229644775
1.0148099660873413
1.1974799633026123
1.402400016784668
1.6450400352478027
1.6184200048446655
0.9555709958076477
1.1464099884033203
1.4490699768066406
1.7324399948120117
1.5189499855041504
1.3512500524520874
1.4879800081253052
1.2857600450515747
1.2400000095367432
1.2607899904251099
1.3048499822616577
1.3769700527191162
1.4799400568008423
1.5536099672317505
1.3492399454116821
1.2400000095367432
1.2400000095367432
1.2418500185012817
1.4863699674606323
2.060849905014038
2.016479969024658
1.8626799583435059
1.8600000143051147
1.8600000143051147
1.9154200553894043
2.231950044631958
2.347529888153076
1.9847500324249268
2.0097200870513916
2.1889700889587402
2.3785300254821777
2.2803800106048584
1.9590500593185425
1.8865200281143188
1.6409900188446045
1.3444000482559204
1.558019995689392
1.823140025138855
1.8600000143051147
1.8600000143051147
1.8600000143051147
