# vtk DataFile Version 2.0
Vessel Segment
ASCII
DATASET POLYDATA
POINTS 64 float
-6.482717084388112 -13.618345699860397 0.2765286532671823
-5.592603438337738 -13.252662169979827 -0.1350864314508929
-4.7298365481775395 -13.016665993953247 -0.5344296167055813
-3.8338749408544843 -12.791791325627983 -0.9598402913775295
-2.951977609119576 -12.534785146970467 -1.3920539439203794
-2.0980559013570095 -12.186852886033913 -1.8142599719762453
-1.2921724624563768 -11.693248113014949 -2.181307225058625
-0.556943481582074 -11.036359539214434 -2.415508063611457
0.10204331192109471 -10.267392580969055 -2.4561637831305894
0.703703528758676 -9.46245351165824 -2.319814876203528
1.268687834880751 -8.65010170920693 -2.095581742204843
1.7823422065477754 -7.796092492939105 -1.9074550166616835
2.127044870736661 -6.8465245025521 -1.9395761398770803
2.0837433209770233 -5.915793524363462 -2.325117340936219
1.7034528985805502 -5.143603942091877 -2.8596929233100994
1.1328883859819443 -4.47534037680709 -3.365604233952984
0.431830608328148 -3.8635176144033343 -3.7684418568471822
-0.37058586358330475 -3.2962618106900163 -4.017549210171846
-1.2428695801249563 -2.7838476053103225 -4.082386833872163
-2.1441367046506628 -2.329129014792518 -3.984521071526006
-3.0416205286515807 -1.8963213109523345 -3.7933937779660454
-3.9143558421346896 -1.4286464465899273 -3.5722367910547996
-4.737562919114667 -0.883538918437511 -3.339590702056372
-5.46590388421563 -0.24082241890070427 -3.0551049728321935
-5.954089187836979 0.49917647093886636 -2.5662341790927727
-5.649503893678107 0.969860136455957 -1.7584609271847083
-4.819653826054919 0.9324218072929873 -1.1739742088614753
-3.887937751167273 0.7465253703097084 -0.8219930974863426
-2.9177646338580607 0.5276598992387541 -0.6233793190170824
-1.932844540911107 0.32006157015187064 -0.49568724774087
-0.9486465711065487 0.14022006052443975 -0.3281515871197933
0.0 0.0 0.0
0.8606871617424374 -0.07937428177568166 0.529365129683857
1.6216412482390163 -0.0717978445304414 1.199554318480698
2.3003407288042412 0.039368329081218525 1.9449592379258704
2.903543884819424 0.25032719067983067 2.7326506336402603
3.42124781155431 0.5396350927913877 3.5555214197922638
3.8308199262995846 0.8827724203493661 4.417551940240008
4.10050039357285 1.2636653918999692 5.317856896365079
4.201025526227687 1.6718742062870064 6.240552719903034
4.120866741344347 2.0873296722885937 7.161953826971126
3.871949127451405 2.4548635819198967 8.073607953763327
3.4798229045132247 2.6776334795302827 8.981188240523206
2.9967812042357744 2.6707981220346224 9.87185257847354
2.4926121799811867 2.4581062255920756 10.72561615092443
2.0028268980362713 2.129032498105034 11.550826332752758
1.5316307568895873 1.7482600014987753 12.364690255014697
1.0745909642915092 1.3367497915709745 13.171622774215367
0.6275896135929148 0.8790437639272184 13.958970235755082
0.1909075173428381 0.35182935172346685 14.707612178457826
-0.23214084064885823 -0.24042980839649758 15.414360023165484
-0.6375351474730695 -0.8588257271276357 16.10908549433721
-1.014633164807319 -1.4399936621530771 16.850059475998588
-1.3274545379783464 -1.8999687674508463 17.6972487991344
-1.500281390094038 -2.146286821725908 18.663815569356814
-1.4600425434218376 -2.143336233309683 19.675403653871907
-1.2186670325811606 -1.9412683535745672 20.63862510836969
-0.8565133364993025 -1.6007407696974727 21.522523644988567
-0.46716639226989476 -1.1497327038497795 22.343393841502625
-0.13201698258159372 -0.5982677554893306 23.12577347695061
0.10142435319494987 0.032789997607796204 23.885633394690903
0.23823022700855911 0.7026351855467117 24.63845974841213
0.3108151799266034 1.3452785665615385 25.37355151205018
0.3603557180203901 1.9856708258794442 26.200382949495204
LINES 1 65
64 0 1 2 3 4 5 6 7 8 9 10 11 12 13 14 15 16 17 18 19 20 21 22 23 24 25 26 27 28 29 30 31 32 33 34 35 36 37 38 39 40 41 42 43 44 45 46 47 48 49 50 51 52 53 54 55 56 57 58 59 60 61 62 63
POINT_DATA 64
SCALARS MaximumInscribedSphereRadius float
LOOKUP_TABLE default
0.9300000071525574
1.1500200033187866
1.1089400053024292
0.9391570091247559
0.9684200286865234
1.1023999452590942
1.2337299585342407
1.2400000095367432
1.2373700141906738
1.12391996383667
0.9351149797439575
0.9903420209884644
1.266610026359558
1.322350025177002
1.2634899616241455
1.2438499927520752
1.2705700397491455
1.416100025177002
1.7166999578475952
2.175679922103882
2.071160078048706
1.98403000831604
1.9798599481582642
1.8776099681854248
1.4229199886322021
1.4736700057983398
1.5499999523162842
1.7228699922561646
1.7160799503326416
1.2922799587249756
1.4505800008773804
1.8461500406265259
1.8712400197982788
1.2436599731445312
1.2124600410461426
1.2400000095367432
1.311769962310791
1.497290015220642
1.5499999523162842
1.5499999523162842
1.5499999523162842
1.5499999523162842
1.350559949874878
1.3771300315856934
1.499079942703247
1.3735899925231934
1.8307100534439087
2.1459600925445557
1.9234000444412231
2.082289934158325
2.078900098800659
1.897979974746704
2.530590057373047
2.156949996948242
1.6778299808502197
1.905060052871704
1.8569300174713135
1.6432600021362305
1.550819993019104
1.5499999523162842
1.564579963684082
1.7483999729156494
1.8600000143051147
1.8600000143051147
