# vtk DataFile Version 2.0
Vessel Segment
ASCII
DATASET POLYDATA
POINTS 64 float
-5.819056789661541 -9.578428491756698 -0.05276403027048007
-4.829648362221149 -9.419052546585121 -0.35647707047504323
-4.003175050432593 -9.1579650361777 -0.8011505106402829
-3.197709766312043 -8.775356415517527 -1.3024105799365144
-2.4647516251689794 -8.24464752504156 -1.7581285575448151
-1.8027810208871928 -7.5398436960517845 -2.0604619764691168
-1.2099337700750652 -6.722188706135831 -2.1513142501605
-0.6207609513678818 -5.897027029411516 -2.1135221790789607
0.024760793178720906 -5.1157176216455085 -2.0688657972178848
0.7222206588481911 -4.379402201748678 -2.09068610892382
1.4274548331331425 -3.661931350341581 -2.220556398978623
2.0545983980617346 -2.914227492968074 -2.494918275649222
2.412370316289824 -2.085377384252508 -2.9500754216130334
2.249135794477799 -1.2654622140187506 -3.5134043547505294
1.6451045436480634 -0.6265367396218884 -4.0172138528094665
0.8369363437501992 -0.1730977242022977 -4.428603122165354
-0.06785910113005876 0.15289820765777612 -4.750825174932726
-1.0285214324142242 0.41902915492170223 -4.937050767921754
-2.0103981418269674 0.6720560040568917 -4.937280618382033
-2.9842596844276343 0.9099918260696143 -4.782247118667983
-3.94357930739253 1.1225946665827424 -4.530870769843577
-4.891164293035686 1.3097821216046686 -4.2159504820344225
-5.808266896928363 1.474364319991122 -3.8220579941338313
-6.5996264235040805 1.611443931947608 -3.219604913665133
-6.339041789554176 1.6044345975586343 -2.3115288547972543
-5.435343049708448 1.5215291784159974 -1.811518578029058
-4.500652892522345 1.45465669700421 -1.4290782008849927
-3.5341570600708536 1.3871083559511963 -1.1293918718243452
-2.552642142622702 1.2692329273407745 -0.9008185796166076
-1.5927269849949284 1.005189023604021 -0.7086901735179331
-0.7286097023464422 0.5444623855444105 -0.44731849251702127
0.0 0.0 0.0
0.6138145953204375 -0.45605865163746645 0.6649380468118018
1.1225604791783301 -0.6778813825702187 1.5119217574060162
1.4787571485420274 -0.5509474168356254 2.450280762593571
1.605814791429194 -0.06777476481463117 3.3296770440131387
1.4993591415463163 0.6447326138292976 4.0423234119175016
1.244797169858674 1.443189702503535 4.613757600314404
0.9408705117071879 2.2569514522781975 5.138143280508421
0.6855525966163999 3.050177289382595 5.71654872048512
0.567493031998685 3.7778039230617595 6.412305309757131
0.5913395394713246 4.409268645624129 7.205684786359777
0.6854397220902374 4.951281434843486 8.057991591816403
0.7782935184303765 5.402453541826185 8.961751704921237
0.8128790841430972 5.718473714735876 9.924592878597153
0.7527776072679928 5.803414377146729 10.93235009305855
0.6083961758155035 5.572748432290392 11.90766027602871
0.4417723472105871 5.071969176328138 12.773312736410983
0.3086625158564081 4.424556399563456 13.542860514020429
0.2296055193199472 3.719640651470045 14.268216176404609
0.1993830394319859 3.0035775746554263 14.986343963272255
0.19960392653518685 2.2966865961999803 15.71417577873419
0.2070960081348482 1.6022779672127456 16.453844985520014
0.20556621483668844 0.9133659793504102 17.19873255407094
0.19501259818411107 0.22016515243000248 17.939483137094072
0.18576461976026187 -0.4806108028264416 18.67312084712118
0.18494637698277822 -1.18124036626633 19.407018641952718
0.1948781527516535 -1.8621801161599838 20.159108710859396
0.21841810374822201 -2.486219219537589 20.958540356738492
0.26568387274532373 -2.9802491110910783 21.84264803698153
0.3569773022326711 -3.205177836319215 22.82506847516725
0.5061308434743461 -3.010762047283355 23.81345052955083
0.679937201446324 -2.502908484977885 24.625578588151857
0.8790886040930487 -1.7418090578469207 25.31741413527752
LINES 1 65
64 0 1 2 3 4 5 6 7 8 9 10 11 12 13 14 15 16 17 18 19 20 21 22 23 24 25 26 27 28 29 30 31 32 33 34 35 36 37 38 39 40 41 42 43 44 45 46 47 48 49 50 51 52 53 54 55 56 57 58 59 60 61 62 63
POINT_DATA 64
SCALARS MaximumInscribedSphereRadius float
LOOKUP_TABLE default
0.9300000071525574
1.3269200325012207
1.475100040435791
1.3049499988555908
1.2563799619674683
1.2627999782562256
1.3399800062179565
1.4797500371932983
1.3409500122070312
1.0648800134658813
1.1952699422836304
1.1769200563430786
0.7594810128211975
1.1007699966430664
1.2400000095367432
1.0896999835968018
0.889119029045105
0.9199690222740173
0.9300000071525574
0.9300000071525574
0.9596269726753235
1.1430100202560425
1.4309099912643433
1.7471400499343872
1.4878300428390503
1.290179967880249
1.431439995765686
1.4664599895477295
1.2532999515533447
1.0196900367736816
1.2352299690246582
1.5480899810791016
1.5164899826049805
1.3315999507904053
1.2400000095367432
1.3789199590682983
1.7695499658584595
1.8600000143051147
1.81413996219635
1.6187000274658203
1.550130009651184
1.5695600509643555
1.7538700103759766
1.8544800281524658
1.8600000143051147
1.5098899602890015
1.2400000095367432
1.2400000095367432
1.2400000095367432
1.2400000095367432
1.2400000095367432
1.2400000095367432
1.2742400169372559
1.4733200073242188
1.6793899536132812
1.8395999670028687
1.6759400367736816
1.55771005153656
1.5866899490356445
1.7335799932479858
1.9386299848556519
2.091010093688965
2.008650064468384
1.8600000143051147
