# vtk DataFile Version 2.0
Vessel Segment
ASCII
DATASET POLYDATA
POINTS 64 float
-2.9758028730797244 -13.619182206788611 -1.7196457470879511
-2.5892430627956284 -12.650839637013947 -1.619847069832755
-2.136068262906774 -11.786871745813364 -1.6803637262526383
-1.6103831310803112 -10.937026311215751 -1.873499984578033
-1.0674451597931962 -10.130715465079424 -2.1655326588959642
-0.5455081395538983 -9.322836191959889 -2.4879472056564502
-0.08021049364679433 -8.460845949170897 -2.750685264908789
0.30396790434979254 -7.529739665614894 -2.865292758285783
0.6150856846932619 -6.566190765334947 -2.80900328255445
0.8823328343553545 -5.6022882145090325 -2.639753834196958
1.115370143494538 -4.634767994896801 -2.4424048993307705
1.2765102642469441 -3.6431246627009353 -2.303574438419627
1.2614902337980898 -2.6304862760593695 -2.3154910242332236
0.9325965860281923 -1.6980092785657348 -2.5244877129955627
0.286557761474439 -0.9852176492595519 -2.838679548224929
-0.5627238634721828 -0.5125020896012579 -3.124381384725663
-1.5215206982846998 -0.24316058658925677 -3.312989414603028
-2.527280064365235 -0.13646106973761588 -3.3843475061814137
-3.5405693500658453 -0.14945785328443636 -3.3430941588256573
-4.5411999989327905 -0.23753737413456794 -3.2016987684615485
-5.520528570281486 -0.35412055056695524 -2.9650031214454047
-6.467233380204614 -0.44254313175316373 -2.61177781932278
-7.31859199422464 -0.40409930534503957 -2.0554529287578807
-7.580328700841042 -0.06822331478275423 -1.1770033604181558
-6.943392668097118 0.28242899166989677 -0.4825054424039281
-6.020875409481228 0.4434382649563443 -0.10022474296976909
-5.02002085003962 0.453106230245037 0.06124088156652942
-4.009620338053789 0.36729761888031415 0.050156406590695646
-3.0074542401054116 0.25656162289083106 -0.062484075654308704
-2.00383813348052 0.1620467596932985 -0.17718161147734693
-0.993047985842633 0.07975122784633501 -0.1863381693177035
0.0 0.0 0.0
0.9191018601085919 -0.061957676174813535 0.422046696693438
1.702366834178185 -0.07269339548723426 1.0646359366411404
2.2800425038712366 0.007019136113011717 1.8924227541160372
2.52891038921151 0.22919618363515132 2.8467087197793925
2.274647170134692 0.6305442313116328 3.73332196477265
1.6171544002558822 1.1339503309207992 4.314595273832823
0.8396645225782261 1.6770735968291384 4.673792134411298
0.07678413817803648 2.276215714748214 4.9707026339336
-0.5863009510070238 2.955754482723058 5.326264319682659
-1.0631542909388796 3.6942568601898405 5.829626646721185
-1.3273846621887528 4.408613894864179 6.498023940643977
-1.4433182980059955 5.0228219884778404 7.296260442420796
-1.4847318263673732 5.487467888230729 8.196386388244138
-1.4877759148925114 5.743876797577222 9.176761365574198
-1.4471115649295483 5.709379297600829 10.187740041991946
-1.3259949571362684 5.336932968174678 11.120741263083993
-1.098428980844311 4.722366421256982 11.893738300420457
-0.7778680026306851 4.020844476312197 12.552628187202611
-0.39792969960046926 3.3269450763719535 13.187800912511431
0.0009506953089644029 2.6693964004048407 13.84950738632696
0.38322914903408867 2.029478084392609 14.537791964383816
0.726891630104771 1.3587573873103216 15.216940455898992
1.0256392336542242 0.6112659360293085 15.833960222260975
1.2882354068364272 -0.22094103710094068 16.35085463049887
1.5358265128510307 -1.1072244582957136 16.778024649906286
1.7955072938313605 -2.003423780970068 17.17647290959183
2.0946374101185814 -2.852164899458788 17.644000866078347
2.4500061780291347 -3.53709752881332 18.29940081243458
2.83161979743628 -3.8480700177350737 19.18060030518981
3.1752737574294336 -3.719834076239609 20.127193777203455
3.460579540329187 -3.3307568925218516 20.97678444660219
3.7341415837967986 -2.728994740952596 21.789538183819555
LINES 1 65
64 0 1 2 3 4 5 6 7 8 9 10 11 12 13 14 15 16 17 18 19 20 21 22 23 24 25 26 27 28 29 30 31 32 33 34 35 36 37 38 39 40 41 42 43 44 45 46 47 48 49 50 51 52 53 54 55 56 57 58 59 60 61 62 63
POINT_DATA 64
SCALARS MaximumInscribedSphereRadius float
LOOKUP_TABLE default
1.2400000095367432
1.0512200593948364
1.206130027770996
1.7631200551986694
1.8600000143051147
1.8600000143051147
1.7640000581741333
1.2625700235366821
1.1160000562667847
1.0847500562667847
0.9707310199737549
0.7854639887809753
0.715146005153656
0.9194999933242798
0.9486439824104309
1.1024399995803833
1.1579300165176392
0.9761890172958374
0.9300000071525574
1.0931199789047241
1.476040005683899
1.7349799871444702
1.5828399658203125
1.4271199703216553
1.3905500173568726
1.3393700122833252
1.6107100248336792
1.986299991607666
1.7855099439620972
1.6669399738311768
1.7843899726867676
1.6071200370788574
1.7056100368499756
1.8464100360870361
1.8600000143051147
1.8439600467681885
1.5379799604415894
1.2400000095367432
1.2400000095367432
1.2400000095367432
1.2400000095367432
1.207200050354004
1.0378799438476562
1.0222500562667847
1.2204099893569946
1.4258699417114258
1.5499999523162842
1.5859800577163696
1.7522499561309814
1.5266200304031372
1.311269998550415
1.4969700574874878
1.5499999523162842
1.5499999523162842
1.6037399768829346
1.9273600578308105
2.0102601051330566
1.6270300149917603
1.553339958190918
1.7049000263214111
1.9385499954223633
1.9151999950408936
2.150779962539673
2.4800000190734863
