# vtk DataFile Version 2.0
Vessel Segment
ASCII
DATASET POLYDATA
POINTS 64 float
-4.975833937028636 -9.880755327278592 -2.547907665346706
-3.9620184959078446 -9.741792091858603 -2.6594644850026437
-3.0249287002902387 -9.573971678919893 -2.96594047519504
-2.12911364814339 -9.346120575390911 -3.3793678918490313
-1.2758447337379994 -9.038007879830467 -3.8329505844423233
-0.4567776006259022 -8.624127385493807 -4.264547198489496
0.3216098527670089 -8.066276619980886 -4.595376886302419
1.006804533010956 -7.33360740455795 -4.726974655523286
1.5197841439203008 -6.465761119075408 -4.634055987997465
1.86062736507814 -5.532628347568227 -4.430814156574414
2.084036804687802 -4.556629192066127 -4.270695197339965
2.2029482204596285 -3.550595251852456 -4.274688342570361
2.1522542710473123 -2.5660163150254647 -4.5022972988265275
1.8157648238998287 -1.6961393118876946 -4.891257381229612
1.1349495122948188 -1.036378640527798 -5.237666542996838
0.21821840485702984 -0.625341210003028 -5.3469408733705315
-0.7665988311135951 -0.40536410474206996 -5.2505160670901185
-1.76328355675702 -0.2826774531674551 -5.106335599273338
-2.7695748044942046 -0.1820617394315417 -5.027348210772687
-3.7762597381682257 -0.05885404949848675 -4.999124771904203
-4.771473798085399 0.11394561388260786 -4.909936071066444
-5.7071032149152785 0.3603202524238714 -4.613524479463344
-6.40075584564326 0.6715676107033264 -3.9556054240389336
-6.526478344338408 0.8983044085608249 -2.9890345848341617
-6.118359615007593 0.8816676385534807 -2.0672078731611174
-5.451675369701094 0.6472251132114335 -1.3430581534401698
-4.669032324431068 0.26994411241441096 -0.8218840469207427
-3.8130477694927545 -0.15319185108358574 -0.48141382470881566
-2.8809536885595293 -0.500168983677769 -0.28658480275526044
-1.8824776431992694 -0.6372507145276616 -0.19040086090405015
-0.8868309909597436 -0.4711360802983928 -0.12175720241371898
0.0 0.0 0.0
0.6831683302756738 0.705900635173918 0.24131465579059738
1.1042290356455213 1.5305549650164734 0.64870993756613
1.2591817972085713 2.335727409602225 1.2415338964065261
1.207825513851645 2.9977415081126964 2.0056801005997076
1.0555650125610467 3.4322065340479795 2.907333719073479
0.9179175789756628 3.581386242449274 3.8986201643105045
0.872539353046549 3.429814591558572 4.898299072965115
0.906314256738422 3.0406688780718785 5.83338119618124
0.956823799377475 2.4975366206441247 6.6882289497775025
0.9673525629952836 1.857622777115866 7.475086413101215
0.9096369392477015 1.1607277975193264 8.209880347838784
0.789893584454304 0.4410902622801894 8.914909766946131
0.6341384247484626 -0.2646724040828868 9.626937062402794
0.45860566297553784 -0.9103795849648775 10.389122018555618
0.2627364019367568 -1.4425181633221542 11.229624854573558
0.04792031419568378 -1.819164588462938 12.145967303171354
-0.16406471414163584 -2.0263397030211383 13.115410078622347
-0.3266775765724118 -2.057194845223803 14.115334669625724
-0.3624920149214515 -1.86753881942206 15.108603164478946
-0.16151302709726229 -1.369996754662135 15.961296500527457
0.26479117090965865 -0.6163788652152676 16.48121970711027
0.7605784856866682 0.23148587545236826 16.732409589388183
1.2248992019996778 1.1201532213762633 16.88626962256397
1.5938019900850233 2.0473352348843217 17.06667022652444
1.8231304918202067 3.001630151527786 17.320902158035658
1.9226657417034358 3.9724309167938565 17.597280536853745
1.9406025706959877 4.966357676969577 17.797892631892978
1.9055047256423112 5.977372289776359 17.86778751918139
1.8025001149855744 6.985447907393979 17.826059446031024
1.5596599774049178 7.966528503370581 17.762288553290507
1.0418091934187632 8.812966573976055 17.858099159516065
0.24092915447240268 9.293804325217218 18.275855266916288
LINES 1 65
64 0 1 2 3 4 5 6 7 8 9 10 11 12 13 14 15 16 17 18 19 20 21 22 23 24 25 26 27 28 29 30 31 32 33 34 35 36 37 38 39 40 41 42 43 44 45 46 47 48 49 50 51 52 53 54 55 56 57 58 59 60 61 62 63
POINT_DATA 64
SCALARS MaximumInscribedSphereRadius float
LOOKUP_TABLE default
0.9796000123023987
1.2010400295257568
1.1175700426101685
0.9300000071525574
0.9300000071525574
1.090149998664856
1.2491099834442139
1.273210048675537
1.2482600212097168
1.2400000095367432
1.2400000095367432
1.2428900003433228
1.2911200523376465
1.2116700410842896
1.372499942779541
1.6207200288772583
1.2453800439834595
1.2400000095367432
1.0454800128936768
1.0447499752044678
1.3112800121307373
1.7700799703598022
1.8472700119018555
1.6517399549484253
1.7241899967193604
1.7481399774551392
1.5902700424194336
1.8253599405288696
1.6594200134277344
1.6857500076293945
1.8771300315856934
1.8632999658584595
1.8600000143051147
1.9647400379180908
2.117029905319214
1.951930046081543
1.5921900272369385
1.3575400114059448
1.5722800493240356
1.9780700206756592
2.0453100204467773
1.8780399560928345
1.8600000143051147
1.8600000143051147
1.8660800457000732
1.8794499635696411
1.8693900108337402
1.9683400392532349
2.143249988555908
2.167140007019043
2.0296499729156494
1.8638999462127686
1.8540899753570557
1.823009967803955
2.1526899337768555
2.5096399784088135
2.54190993309021
2.4315600395202637
2.403520107269287
2.4534099102020264
2.242069959640503
2.1700000762939453
2.1700000762939453
2.1700000762939453
