# vtk DataFile Version 2.0
Vessel Segment
ASCII
DATASET POLYDATA
POINTS 64 float
-1.0936315610825917 -12.689082031890274 -2.488045617970526
-0.50999398025292 -11.858565193187982 -2.656849033844194
0.02288510725473902 -11.07319307293718 -2.975092924090895
0.500624710439913 -10.275159938040066 -3.375578211895262
0.8954921239955379 -9.446278152851733 -3.8064778485876216
1.1796336023158123 -8.565602454577084 -4.221157336699047
1.3188517428019855 -7.621774891845086 -4.563109837299344
1.2826697374212572 -6.628714189358095 -4.7584425359050275
1.0805475201819639 -5.636293992190385 -4.749950073955257
0.7756663984283123 -4.688104979758523 -4.5604590026731975
0.4192359845152396 -3.7804186985617325 -4.280665570504972
-0.020994439148080263 -2.906713658907926 -4.014472736571296
-0.6831728339969504 -2.1606517470971442 -3.855571139621024
-1.604452099899962 -1.7521216458325741 -3.798728840404077
-2.6083243208768314 -1.6732391708255359 -3.693279504958769
-3.582755134363036 -1.7964025944385806 -3.444535651419128
-4.488726000790729 -2.0438151585567597 -3.0624119045228984
-5.330435400334689 -2.364360024278866 -2.5958794228257753
-6.121635649287795 -2.7208441925801594 -2.070497591164147
-6.855462648938376 -3.0823034073305013 -1.4708519442802885
-7.426372562658934 -3.3817443618875176 -0.6906935770660009
-7.1953459154534665 -3.231248554972686 0.2216560817966788
-6.461255717848812 -2.6904424510688525 0.6541521406397354
-5.7080209867093785 -2.022875567148682 0.7602096542830322
-5.005902645624688 -1.3202520998126694 0.565820063455565
-4.342464908001178 -0.6964574556238936 0.12178615206155251
-3.6544071997643637 -0.2209287965913434 -0.45099806029745776
-2.8841630750515717 0.09704609800095843 -1.0280502650208454
-1.9922982116916228 0.2583243847499979 -1.4787679184254763
-0.9905468806951523 0.24219646650922816 -1.5739136855059834
-0.21161263834565888 0.0798232526854458 -0.9821103317750357
0.0 0.0 0.0
-0.14130165343019785 0.12303139880953129 0.994151636827296
-0.44753468841985633 0.45796255468335034 1.8997906525673187
-0.7994789474804693 0.9556418543029742 2.7102024102150812
-1.1144478065372725 1.52269729876061 3.4901573910313672
-1.314968563631885 2.00589224306109 4.356941308436248
-1.309028630826065 2.1816438099508604 5.350013932776829
-1.0956404916914655 2.0090298588843587 6.323733736610774
-0.7426737434344343 1.6293904201713199 7.194419034897761
-0.2869188986178502 1.131538659622191 7.950825406720911
0.2532874254252967 0.5545919029771558 8.585916966245314
0.8508051265940566 -0.07520971683009593 9.110409769613156
1.4569134945925926 -0.7333475675612445 9.5889599319645
2.00586126135822 -1.3933409404434214 10.128586613675111
2.4321956681375205 -2.010669669419415 10.809555902857115
2.715603436122139 -2.5312611306242734 11.631551365224771
2.8987093728776085 -2.918814385553349 12.550180845819101
3.039272481760143 -3.136321611251792 13.530073411073651
3.1765480294200303 -3.1163625523020984 14.532988354546601
3.314260147930996 -2.7743766271461534 15.474131990769978
3.41463509040629 -2.109619096448539 16.229091494828587
3.4408019910456287 -1.2414941633936383 16.74976123059479
3.3905682400407837 -0.2869081567564767 17.087574229185645
3.283500532955144 0.6951367459029242 17.318083036885724
3.139638757802203 1.6813154547826001 17.508353032892266
2.9592035484329893 2.6579298424862796 17.715420249987762
2.700996955015522 3.599610165392673 17.988631772808667
2.2838656655046 4.443535146047276 18.361750024236613
1.6639554826217282 5.099325681744626 18.820239047819182
0.8984292961772421 5.5509828646473345 19.30701981590528
0.06017699270833849 5.865508149167516 19.779839022783865
-0.8070993862173976 6.114437717211025 20.212961167370654
-1.7267669073287977 6.377893450855768 20.594748081914254
LINES 1 65
64 0 1 2 3 4 5 6 7 8 9 10 11 12 13 14 15 16 17 18 19 20 21 22 23 24 25 26 27 28 29 30 31 32 33 34 35 36 37 38 39 40 41 42 43 44 45 46 47 48 49 50 51 52 53 54 55 56 57 58 59 60 61 62 63
POINT_DATA 64
SCALARS MaximumInscribedSphereRadius float
LOOKUP_TABLE default
0.9300000071525574
1.3974599838256836
1.4572399854660034
1.2743500471115112
1.2496800422668457
1.1117099523544312
0.9660410284996033
1.1890300512313843
1.2400000095367432
1.2400000095367432
1.2400000095367432
1.2400000095367432
1.4509799480438232
1.5499999523162842
1.1867400407791138
0.7189440131187439
0.8576480150222778
1.1708500385284424
1.543779969215393
1.8482500314712524
1.7735300064086914
2.062920093536377
1.7007700204849243
1.7242799997329712
1.8600000143051147
1.8600000143051147
1.8600000143051147
2.0462698936462402
2.326930046081543
1.9235299825668335
1.8600000143051147
1.8600000143051147
1.7489900588989258
1.6204099655151367
1.842329978942871
1.8422199487686157
1.5999200344085693
1.5754200220108032
1.7494200468063354
1.8593000173568726
1.8600000143051147
1.8600000143051147
1.9762799739837646
2.1075000762939453
1.9305399656295776
2.022550106048584
2.2356300354003906
2.4303500652313232
2.327130079269409
2.167639970779419
2.0744800567626953
1.923050045967102
1.8600000143051147
1.9324500560760498
2.3163199424743652
2.4800000190734863
2.4800000190734863
2.4800000190734863
2.1536800861358643
1.945989966392517
2.1438798904418945
1.9676200151443481
1.6661100387573242
1.2400000095367432
