# vtk DataFile Version 2.0
Vessel Segment
ASCII
DATASET POLYDATA
POINTS 64 float
-5.4411444638069195 -18.801149903711618 0.5570321217592105
-4.780230249937587 -18.36435576233511 -0.10374696307160357
-4.222895974207751 -18.023739794352778 -0.8477711269303543
-3.7271580724726014 -17.706541859220494 -1.68637679130598
-3.3312946692613075 -17.39166461598354 -2.5621936944717163
-3.0246378172341477 -17.021605745639885 -3.4567016630234795
-2.807746254822984 -16.550897386924007 -4.328492218633103
-2.663215734024901 -15.94714198457237 -5.130748772269223
-2.562642689638643 -15.214277473640276 -5.824876772157037
-2.4793778240059283 -14.383655925346956 -6.40138617352681
-2.3978907563323917 -13.48846160109055 -6.871814762329175
-2.3092857235069295 -12.551759879650222 -7.251330451816895
-2.2030665470931927 -11.587577950475596 -7.548857006069081
-2.0531948896011696 -10.60646944625047 -7.759236561392394
-1.7736766362481597 -9.635310367454316 -7.848409108777384
-1.1545034040721507 -8.84416599537918 -7.759296525577889
-0.24360896888175046 -8.404102707283611 -7.636949934420301
0.6932303037296457 -8.02587261792488 -7.632907291650356
1.6206129234408544 -7.590699277724069 -7.558182669791065
2.3441975461927695 -7.253814180957965 -6.982773974704042
2.640470173113548 -7.119170515913995 -6.010180542929356
2.7224831092538806 -6.994470386406398 -5.008714456309993
2.7437304747969313 -6.745631653284573 -4.024976026767441
2.7446915855803584 -6.304817927541007 -3.111601941555126
2.739795354625802 -5.647918462389193 -2.3389964695139227
2.712301470541342 -4.819221129607986 -1.754845824500339
2.622456844528304 -3.8950301107162573 -1.346443968447544
2.4197254313127443 -2.942374068611619 -1.062700779321214
2.054082181811169 -2.022463733571117 -0.8413176722394772
1.5020482808169628 -1.2013186339919621 -0.6186591885203335
0.7945103145121354 -0.5280112676065963 -0.34514720542716537
0.0 0.0 0.0
-0.8196675817438718 0.4287380880847982 0.4168089525795975
-1.6192768952306156 0.8232582973186763 0.9007560954845684
-2.3495057034577482 1.2706323053872826 1.4450677161398036
-2.9077372374832846 1.8961307079147094 2.016322187742181
-3.1738943677270752 2.7263450571478884 2.531616073950883
-3.214526430813445 3.6297230522000796 2.9920785603097357
-3.160602027684816 4.516849131358651 3.4813689479713554
-3.070081468867979 5.332492635573565 4.0778141080111565
-2.9450841895254443 5.9961376637126325 4.834243349471224
-2.776540503627294 6.418095200592583 5.7406827123499635
-2.5788652468613846 6.589528338771025 6.7207927190283
-2.376333423830115 6.579542897893501 7.714832801780132
-2.185728596472934 6.460261651392025 8.704215717081269
-2.0171841029575956 6.279364848453152 9.688221445017145
-1.8753076389078371 6.057069157157864 10.66792614355744
-1.760407837076249 5.793605772395128 11.640957943251411
-1.6680564518848038 5.476224808341705 12.6001918917746
-1.5856386329910508 5.08890410589475 13.534289583072061
-1.4907703948905289 4.625693939559056 14.431953123238074
-1.3578724359418006 4.098819911028575 15.288704200085192
-1.1667709065241292 3.5340742195671835 16.10963413725486
-0.9067732226007074 2.962450938784587 16.90652728035853
-0.5727017912913598 2.4165374705561677 17.693766116355512
-0.16080044013194678 1.931820328032332 18.484160048637975
0.3305880990850305 1.5527134308113535 19.286614805757534
0.8950321767575335 1.3355554675938015 20.10101070005566
1.5045070090214783 1.3365199065054716 20.911446909239935
2.1026583308399913 1.5820251765409767 21.693615528349614
2.622591346118545 2.04231170632486 22.429349228427963
3.004508215458286 2.677940192946044 23.135133394851987
3.2107859346633623 3.390854324571855 23.79068235310294
3.2075179889757885 4.182193203289078 24.452451477559837
LINES 1 65
64 0 1 2 3 4 5 6 7 8 9 10 11 12 13 14 15 16 17 18 19 20 21 22 23 24 25 26 27 28 29 30 31 32 33 34 35 36 37 38 39 40 41 42 43 44 45 46 47 48 49 50 51 52 53 54 55 56 57 58 59 60 61 62 63
POINT_DATA 64
SCALARS MaximumInscribedSphereRadius float
LOOKUP_TABLE default
0.9300000071525574
1.1868400573730469
1.424180030822754
1.4664499759674072
1.329759955406189
1.1896799802780151
1.0471099615097046
1.107699990272522
1.483739972114563
1.8635900020599365
1.827839970588684
1.652269959449768
1.5608799457550049
1.5681099891662598
1.4265999794006348
0.9598249793052673
0.7290409803390503
0.7751399874687195
0.9149150252342224
0.9370570182800293
0.9582549929618835
1.0085200071334839
1.1077799797058105
1.2217199802398682
1.2536200284957886
1.2706799507141113
1.4136099815368652
1.6633700132369995
1.8575899600982666
1.8600000143051147
1.8600000143051147
1.8600000143051147
1.8613100051879883
1.943660020828247
2.0931999683380127
2.062040090560913
1.8997700214385986
1.609320044517517
1.311210036277771
1.2400000095367432
1.2472800016403198
1.2960000038146973
1.3392000198364258
1.2488199472427368
1.0513399839401245
1.0592299699783325
1.2884199619293213
1.5131399631500244
1.602020025253296
1.6541800498962402
1.7389999628067017
1.8360300064086914
1.99590003490448
2.2434799671173096
2.413939952850342
2.344860076904297
2.2372400760650635
2.2688000202178955
2.413029909133911
2.5204999446868896
2.5998198986053467
2.610290050506592
2.548069953918457
2.4800000190734863
