# vtk DataFile Version 2.0
Vessel Segment
ASCII
DATASET POLYDATA
POINTS 64 float
-4.696958634820522 -15.77166121653572 -1.9947177174567048
-4.137013625976207 -15.71438878840182 -2.8686557476460077
-3.450469090205678 -15.480417821147341 -3.5288160220985807
-2.6809724087964226 -15.058573519942852 -4.057281025924979
-1.9457539317181678 -14.468202951148573 -4.424661033808225
-1.2883290539732106 -13.74508750380029 -4.697895111530182
-0.7325521032416347 -12.92567463845183 -4.918446302535617
-0.2788898548924018 -12.042959692992445 -5.128722888194726
0.07829030699460526 -11.124148712342892 -5.3683490102138665
0.3345553266778506 -10.191663531931077 -5.674766070264482
0.4548388285929498 -9.265298447884161 -6.070060184907965
0.35854540120125955 -8.36940789735459 -6.535463614711224
-0.04608204929952853 -7.553734822307361 -6.979112779966605
-0.7307479441330323 -6.8692225833135705 -7.2787397630796
-1.5579978411427224 -6.298094461236053 -7.414704364691452
-2.433331362436091 -5.786096048248444 -7.438244445760237
-3.319715367474151 -5.290400281800948 -7.393299610131468
-4.176854306063888 -4.780849285931683 -7.287463671217491
-5.070288235370229 -4.2064586265658175 -7.1710650891448
-5.21650548555267 -3.6131889964941477 -6.525599257277045
-4.4265824501487225 -3.776029340940045 -5.931561607799744
-3.6139929260591024 -4.098125623384573 -5.418651779882005
-2.8098895190422315 -4.446751186227592 -4.904747780274321
-2.013716514841953 -4.758421096749364 -4.359384493500428
-1.21892502997767 -4.958478709400026 -3.761472359565175
-0.4609957604700541 -4.881305320648339 -3.09172174798493
0.09609857504452667 -4.370747456954353 -2.421890660984491
0.35450303862136395 -3.5766210243401892 -1.846932166510471
0.4037213335794441 -2.6968014465928567 -1.3446482901577381
0.3294119196788733 -1.7994037646213048 -0.8772078955080981
0.1829833568880074 -0.9008502921611983 -0.429432048615317
0.0 0.0 0.0
-0.19195032192070624 0.9093894478934071 0.40692816827389555
-0.3716012016845507 1.8317583845839314 0.7894155989493216
-0.5246027507613051 2.7648178386645377 1.1573533066368202
-0.642737577833737 3.6976713932146756 1.5386624916196325
-0.7218568610063353 4.606495682583768 1.982571750707596
-0.7587419645460066 5.442808225105134 2.5552424117621393
-0.7521406289797833 6.1229736233804175 3.306793962646945
-0.7098147411890594 6.572090058579681 4.214668716425366
-0.6464568240107299 6.786454894155866 5.203923228775348
-0.5726602024065477 6.818062769565886 6.215196634394856
-0.4917664901070255 6.726948600934714 7.222333623485549
-0.4030710282459142 6.560209170289316 8.219172412431838
-0.3063790143239785 6.348495926228046 9.206717363825307
-0.2033266742220672 6.108637305384988 10.18719526787183
-0.09572065266273475 5.845091564793557 11.161017730252182
0.016340013815497434 5.551837796781601 12.1258286154281
0.13434430682409082 5.217089754028972 13.076318516862896
0.25959504067149103 4.830727128656655 14.00599189490413
0.3910982422806764 4.391317310691219 14.911008525318984
0.5230321828296014 3.911209446972926 15.795048012503717
0.6457730202525833 3.414493608525675 16.671151005985628
0.7481451566598127 2.9343894144527356 17.55909345565583
0.818784946005881 2.5166005540524496 18.480909519114125
0.849043517742201 2.2251075027035827 19.45195813642651
0.8392205821070319 2.1358455740268694 20.461982009526313
0.8070641595912014 2.296156153014615 21.462710387687057
0.7851447477079124 2.6888855512178176 22.397399909944763
0.8102128415390614 3.2625263128634434 23.23387348064605
0.9183386342035251 3.9609548341055816 23.958530180576705
1.1775063983028027 4.750841629473018 24.556039912029533
1.5988936621971706 5.529551856026176 24.980788271351926
2.302453700240952 6.266043216280187 25.186570479993595
LINES 1 65
64 0 1 2 3 4 5 6 7 8 9 10 11 12 13 14 15 16 17 18 19 20 21 22 23 24 25 26 27 28 29 30 31 32 33 34 35 36 37 38 39 40 41 42 43 44 45 46 47 48 49 50 51 52 53 54 55 56 57 58 59 60 61 62 63
POINT_DATA 64
SCALARS MaximumInscribedSphereRadius float
LOOKUP_TABLE default
1.5499999523162842
1.3651399612426758
1.2400000095367432
1.2400000095367432
1.2400000095367432
1.2400000095367432
1.2400000095367432
1.2400000095367432
1.2414300441741943
1.2620199918746948
1.2691099643707275
1.130910038948059
1.1644099950790405
1.488700032234192
1.31482994556427
1.0180399417877197
1.052649974822998
1.1877700090408325
1.2400000095367432
1.2747600078582764
1.4875600337982178
1.5499999523162842
1.5683900117874146
1.6784299612045288
1.7760299444198608
1.6466200351715088
1.555780053138733
1.5811500549316406
1.753250002861023
1.791509985923767
1.6317600011825562
1.5503400564193726
1.5499999523162842
1.4568099975585938
1.2995699644088745
1.345829963684082
1.4787299633026123
1.4191800355911255
1.3999700546264648
1.654289960861206
1.9432899951934814
2.198270082473755
1.9639500379562378
1.6762299537658691
1.8519099950790405
2.066649913787842
2.005470037460327
1.9590699672698975
2.097860097885132
2.3378798961639404
2.6240499019622803
2.5904300212860107
2.2757198810577393
2.0494799613952637
1.9088499546051025
2.015700101852417
2.2301599979400635
2.612499952316284
2.6878299713134766
2.338399887084961
2.2848598957061768
2.4481101036071777
2.348629951477051
2.1700000762939453
