# vtk DataFile Version 2.0
Vessel Segment
ASCII
DATASET POLYDATA
POINTS 64 float
-6.66635228542272 -12.779842502267625 -1.1198603922886863
-5.882077485328356 -13.36749598802427 -1.485695225316083
-5.0417342877155695 -13.73177631100947 -1.8168048081968626
-4.097746160832158 -13.947492942883816 -2.151293036550043
-3.1348170034401788 -13.976064473901136 -2.4634313890160846
-2.1752513204307133 -13.8351903466686 -2.760417200179189
-1.2519819992860826 -13.527942222875403 -3.0464687867576075
-0.4002474633098421 -13.055627940218269 -3.3291516955020417
0.33751924099767755 -12.423408728720476 -3.619388024766348
0.9155636151763704 -11.650921118296946 -3.9311408066158378
1.299332688491916 -10.778755291370711 -4.277699592932097
1.4826606162994231 -9.859393422440471 -4.664383059862693
1.4740544389228514 -8.931626743779981 -5.073788787330795
1.2806750583150217 -8.013674081659468 -5.459051913532494
0.9190681446793282 -7.12019064063572 -5.774369900749003
0.416545914729389 -6.267515657824904 -5.995903928495666
-0.19402315711827892 -5.467545889816648 -6.122948017784444
-0.8812122379582469 -4.722656706888823 -6.167848278309454
-1.619464811195876 -4.027180356186929 -6.144777343988177
-2.389043723009416 -3.371052577544755 -6.063945004085811
-3.173704724124097 -2.7421921510384024 -5.9288663226745175
-3.9565311989468226 -2.127188670844387 -5.734317514797027
-4.711407294321935 -1.5082754479462288 -5.456270386168377
-5.366546284139134 -0.8634999254381553 -5.024579237329165
-5.559961837563864 -0.25737924601387285 -4.273491946156385
-4.978463262641049 -0.016498446800209562 -3.471528775947563
-4.174981065971942 -0.006446254369984387 -2.8535064604492
-3.32610584274952 -0.05534092794880933 -2.2999487141349158
-2.4656468849279425 -0.11258169668190583 -1.7653865277790413
-1.6113865176463118 -0.1437098250857274 -1.2189037646655205
-0.7813691969198462 -0.11675113032954014 -0.6362347295683309
0.0 0.0 0.0
0.7016557185924516 0.23019296809280868 0.6952336056595391
1.2979720331752416 0.575783046450884 1.4392681415411779
1.7848645425327698 1.0121115097432318 2.2148778178141217
2.1772147993226603 1.5030689157536261 3.011222708851515
2.492960748677153 2.0165680069747425 3.8272767071777833
2.743912294072928 2.5258261709987266 4.668069859337872
2.9317921338047284 3.00782601632547 5.54081676204725
3.0479770909598565 3.4401189267937284 6.451126141678329
3.0773261259121076 3.801618967199263 7.398479501283582
3.005109542706517 4.073113338930266 8.373106468480998
2.825134490273034 4.240261689212306 9.357211092413358
2.547470813632253 4.298487783992439 10.33103796270418
2.194858807771963 4.251018622668259 11.281024043513327
1.7953794737439415 4.103706760008482 12.201801515631484
1.377284978215479 3.86376138705222 13.094444247795836
0.9673502718477641 3.5405184100878606 13.964341736268658
0.5889808653419574 3.149268152608632 14.820531572068596
0.2590036051046477 2.7126336570269336 15.674776986432445
-0.01303852879927221 2.2593005121016874 16.540719737198955
-0.223365121995993 1.8211972083041907 17.431249605696046
-0.3743942757619208 1.431251448144439 18.35553003274558
-0.47538766904066193 1.1195457567980576 19.315640718810123
-0.5401025606301276 0.9091532819434968 20.30588551804465
-0.5825224708985748 0.8130328384200473 21.31481496761904
-0.6122709712026467 0.8339390384996656 22.328614362373695
-0.6318592661837276 0.9682151974980153 23.333941516837996
-0.6359278450575526 1.2104984360925843 24.319018430705185
-0.6121833383408101 1.5568887912700837 25.272281087627196
-0.5433704160170973 2.0039378614477887 26.17839693783683
-0.4005404936391336 2.562144366953274 27.025989708067303
-0.18589043448262255 3.1756948288389095 27.751017064815667
0.17248215937129766 3.9240888827253513 28.38821360075076
LINES 1 65
64 0 1 2 3 4 5 6 7 8 9 10 11 12 13 14 15 16 17 18 19 20 21 22 23 24 25 26 27 28 29 30 31 32 33 34 35 36 37 38 39 40 41 42 43 44 45 46 47 48 49 50 51 52 53 54 55 56 57 58 59 60 61 62 63
POINT_DATA 64
SCALARS MaximumInscribedSphereRadius float
LOOKUP_TABLE default
1.1160000562667847
1.202589988708496
1.220579981803894
1.0783799886703491
1.0667999982833862
1.2237099409103394
1.2587800025939941
1.1691700220108032
0.9869629740715027
1.354390025138855
1.562880039215088
1.5086300373077393
1.5495699644088745
1.8379100561141968
1.7148699760437012
1.4419300556182861
1.176550030708313
1.1160000562667847
1.1830600500106812
1.4656599760055542
1.589460015296936
1.4005500078201294
1.3662199974060059
1.5120199918746948
1.357699990272522
1.6287000179290771
2.0406899452209473
2.0406999588012695
1.8602900505065918
1.6816200017929077
1.7009999752044678
2.0286099910736084
2.1700000762939453
2.1700000762939453
2.1700000762939453
2.1700000762939453
2.1677300930023193
2.0366299152374268
1.8940500020980835
1.8600000143051147
1.8600000143051147
1.8609399795532227
1.8716700077056885
1.8784300088882446
1.8676899671554565
1.9222400188446045
2.0266599655151367
1.9868799448013306
1.988450050354004
2.273509979248047
2.4025800228118896
2.216330051422119
2.029099941253662
1.96288001537323
2.2706499099731445
2.528470039367676
2.615950107574463
2.5601799488067627
2.462939977645874
2.6829099655151367
2.7278599739074707
2.335740089416504
2.1849100589752197
2.1700000762939453
