# vtk DataFile Version 2.0
Vessel Segment
ASCII
DATASET POLYDATA
POINTS 64 float
-6.861401433185779 -18.26646302718492 2.9509935046037046
-6.175141805175711 -17.92431509643218 2.3379286843570335
-5.435251168018104 -17.623254190868 1.631646683400625
-4.75101851054715 -17.407346261046616 0.9522723415692578
-4.03244093080233 -17.209014334252462 0.24858683965166398
-3.3092311237994583 -17.02691573496361 -0.4339917342698584
-2.5650153150601027 -16.832062562002626 -1.0972618828377594
-1.8087921498587372 -16.605979602501417 -1.7342965038723954
-1.0518170323054257 -16.32795768888177 -2.3502385355207625
-0.31364406369085557 -15.980027329732627 -2.9531917096593965
0.38255368610396007 -15.546086714141286 -3.5503807683718462
1.011636506939854 -15.013638375760939 -4.142402664112534
1.550556815886705 -14.37561245918353 -4.718895910910146
1.9835247753422134 -13.632383093749032 -5.257446083874479
2.3080324909640053 -12.793851152868271 -5.727951698909215
2.5366972017444294 -11.877907259894348 -6.100215642629449
2.6927283783251523 -10.906964733630168 -6.350884537449621
2.8034418112067456 -9.904672345876955 -6.464670536775052
2.8955243210771204 -8.894513450310537 -6.434899687865949
2.992010517681283 -7.8986017880439565 -6.2657000669709975
3.1077685881870973 -6.934676691893499 -5.970398264719633
3.2469652644299045 -6.0139456656812476 -5.567245089204438
3.4033267171448256 -5.140534360254368 -5.075105257176515
3.561693635190843 -4.312953898918941 -4.509850064164976
3.695944723984929 -3.5259351379616635 -3.8834529041829615
3.7624178958549326 -2.773711478373786 -3.2064727358639202
3.677568625558527 -2.05406366107396 -2.492030344077494
3.3040528522183052 -1.4095749686559418 -1.806877177247278
2.6213103233200807 -0.9086089945679118 -1.245732172122532
1.776278315908141 -0.548486931058485 -0.8120533205601839
0.8880408784762436 -0.2585621162412778 -0.4171230876291148
0.0 0.0 0.0
-0.8612609479323853 0.24273610251801186 0.478411365955479
-1.6760265063544384 0.47032305889450204 1.038722292043989
-2.4324834411717955 0.6734544094632405 1.6838099888895017
-3.129275552588894 0.8375366481628846 2.402935575506499
-3.773670655442032 0.9479342544285089 3.1789249967644766
-4.377004044142841 0.9922662510651172 3.9935354146076185
-4.950415847315527 0.9624852869287364 4.830105250726799
-5.501342275259496 0.8560364906326554 5.675499792831388
-6.031037189765255 0.6761961046291107 6.5219964288487695
-6.53342671295153 0.43127190760126194 7.368883435593815
-6.992250546770019 0.1342536852138054 8.223691703744278
-7.372455168256059 -0.19691722263524455 9.104050866639104
-7.600125507826655 -0.5306886830610912 10.035607619257478
-7.479071444376325 -0.7767542919286023 11.018805444492427
-6.899122113972001 -0.7960359830499382 11.840520106691315
-6.064117224935353 -0.6168471594398603 12.401288834810504
-5.170063580486501 -0.34317948688918554 12.791946129251423
-4.259370915364782 -0.026768255046925784 13.109579869095104
-3.348206821537349 0.3045108318732744 13.408402871104826
-2.4432240018786193 0.6291465051031789 13.732635366307024
-1.5528203658877628 0.926511539754842 14.117748647229197
-0.6887089952506107 1.1748204215230176 14.588134264620576
0.13796628472844638 1.355191456436288 15.148293876010253
0.9251412038437024 1.4586025934816598 15.78015269946613
1.6830477378957263 1.4873824133126916 16.454276447565398
2.428829621748823 1.4523039048898996 17.140940857751172
3.1813023341541666 1.3720548342057433 17.81809159598205
3.950144557633878 1.268992662857822 18.46797284572683
4.74900797968552 1.1926495592901323 19.101466247309933
5.542405702001742 1.172741946628866 19.701093839756233
6.3449188692507 1.3706523045166796 20.362150117792737
6.969742350562044 1.8002408525248563 20.991519677113
LINES 1 65
64 0 1 2 3 4 5 6 7 8 9 10 11 12 13 14 15 16 17 18 19 20 21 22 23 24 25 26 27 28 29 30 31 32 33 34 35 36 37 38 39 40 41 42 43 44 45 46 47 48 49 50 51 52 53 54 55 56 57 58 59 60 61 62 63
POINT_DATA 64
SCALARS MaximumInscribedSphereRadius float
LOOKUP_TABLE default
0.6200000047683716
1.0829399824142456
1.3927799463272095
1.0904899835586548
0.8263940215110779
0.9414420127868652
1.1389199495315552
1.1077500581741333
0.9669150114059448
0.9300000071525574
0.9337930083274841
1.0250200033187866
1.086300015449524
1.018030047416687
0.9962339997291565
1.0933300256729126
1.1574900150299072
1.0851999521255493
0.9725390076637268
0.951882004737854
0.9832559823989868
1.0993599891662598
1.2513600587844849
1.471269965171814
1.7317700386047363
1.6677700281143188
1.471690058708191
1.4638899564743042
1.5730400085449219
1.5323100090026855
1.4249999523162842
1.2910900115966797
1.4144200086593628
1.530400037765503
1.5499999523162842
1.5499999523162842
1.5499999523162842
1.5719399452209473
1.6538900136947632
1.7732599973678589
1.8151799440383911
1.7242399454116821
1.5956100225448608
1.3739399909973145
1.3687700033187866
1.5541599988937378
1.7799500226974487
1.9808499813079834
2.081850051879883
2.034329891204834
1.9455599784851074
2.0188701152801514
2.161600112915039
2.3167500495910645
2.4897000789642334
2.78016996383667
2.9852499961853027
2.9486401081085205
2.837019920349121
2.7998099327087402
2.7565999031066895
2.555449962615967
2.1743199825286865
1.5499999523162842
