# vtk DataFile Version 2.0
Vessel Segment
ASCII
DATASET POLYDATA
POINTS 64 float
4.234708542372297 -15.155466843000209 -2.9958959778862564
3.736406639746192 -14.992048677660504 -3.8897630860840358
3.2803293566973273 -14.61975295258468 -4.678129904719462
2.83048730396391 -13.988007140258023 -5.346223707225145
2.4063983874035717 -13.177439094975208 -5.779122515546185
1.9675037176170398 -12.300620169701148 -6.041299393742536
1.5031894479689467 -11.41247841131399 -6.198742880396573
1.0241068200053591 -10.523503308228758 -6.2970778622581625
0.5497149721992286 -9.628740973748961 -6.358312765388148
0.09238947198541243 -8.723728684912366 -6.393088915467335
-0.3473154605192979 -7.809393995671111 -6.403651570982958
-0.7868424748829319 -6.895460588363288 -6.382052998632884
-1.2799875829347895 -6.010789287443535 -6.301647636702004
-1.9722500984692979 -5.306143908572429 -6.080302555401227
-2.8703000666325726 -5.114665021733847 -5.674052787691559
-3.726312743884478 -5.380103659295467 -5.190063301712472
-4.475258466563884 -5.822694240338088 -4.669768385923857
-5.128255857403671 -6.345133444872431 -4.095367849693873
-5.67434822668979 -6.902005115013471 -3.4466137813155293
-6.082483082497266 -7.450231263935702 -2.6962465544745373
-6.232417309935986 -7.854130200849733 -1.7752870312084428
-5.8169398227750175 -7.604546344763032 -0.9556784210713277
-5.128035391683638 -6.830296186600829 -0.8048075476311403
-4.465782037471735 -6.076165290430158 -0.8659831752019472
-3.781190106453938 -5.336506037732328 -0.9986402976639546
-3.0733854389962763 -4.625260744548516 -1.146263325952029
-2.341203924532271 -3.933864761038503 -1.2703115130427034
-1.5990141135266898 -3.2445601434053026 -1.3279695725268525
-0.8939525847593957 -2.51855684401832 -1.258110239862987
-0.337598714877811 -1.7134901512525982 -0.9952658134574517
-0.04344173381062135 -0.8515813182522372 -0.5495816575793476
0.0 0.0 0.0
-0.14815143636839936 0.7961120023641042 0.6107355920904343
-0.4643697667986207 1.4918387408858569 1.2776743582645582
-0.9434754017058244 2.01289764690897 2.0038225119225563
-1.5524333659632936 2.273106845064251 2.771393690083544
-2.2122879427281967 2.2607375371355176 3.541365352034318
-2.8549423877000253 2.0564036167161226 4.299226793548417
-3.4490568337524734 1.7604430141336667 5.066592345356489
-3.974928094438056 1.4654113361856693 5.882602430129402
-4.395570464787434 1.278256224934331 6.786527263042212
-4.651642551390706 1.313369817766648 7.7660146553090135
-4.724614230072754 1.592482464857183 8.738094496510291
-4.662728592426766 2.032070456488347 9.650418523312815
-4.513047164090885 2.549525834875342 10.510142766789377
-4.291080788076401 3.092615243440397 11.337897778965688
-3.9860696533604294 3.619359739619466 12.149467099762067
-3.5634948946459013 4.079387405223013 12.948843287889245
-2.97798391811068 4.399777124745467 13.71220247035597
-2.223523482211614 4.512280153026472 14.379447524975406
-1.3622383924345454 4.433343051402932 14.909675763570155
-0.4541682895574973 4.246997253289492 15.321977432247651
0.47934751827628874 4.023344496804303 15.650406483901596
1.433866825019083 3.807911930657259 15.918527552370355
2.4077937501171465 3.633041817284384 16.142610462998988
3.3972167375304867 3.5254199292694777 16.33947399386152
4.393331921211142 3.5050918791896173 16.530919871165356
5.38235954639783 3.5811570219140187 16.74393689252204
6.348564147922972 3.747875152934123 17.003734077952885
7.280530426052261 3.9870491115097866 17.328355483904343
8.16723971656227 4.271760810790535 17.721502491245168
9.02424862649924 4.580324792991962 18.1952629635593
9.810751027811593 4.872747366519676 18.70824705294128
10.604514891261333 5.150869865769863 19.31389570536161
LINES 1 65
64 0 1 2 3 4 5 6 7 8 9 10 11 12 13 14 15 16 17 18 19 20 21 22 23 24 25 26 27 28 29 30 31 32 33 34 35 36 37 38 39 40 41 42 43 44 45 46 47 48 49 50 51 52 53 54 55 56 57 58 59 60 61 62 63
POINT_DATA 64
SCALARS MaximumInscribedSphereRadius float
LOOKUP_TABLE default
1.2771999835968018
1.2586599588394165
1.2456799745559692
1.2887500524520874
1.418429970741272
1.4755200147628784
1.361299991607666
1.3429900407791138
1.3814300298690796
1.4693299531936646
1.5807100534439087
1.8266899585723877
1.8332799673080444
1.2795100212097168
1.4276100397109985
1.5054399967193604
1.308590054512024
1.2571200132369995
1.267590045928955
1.4378700256347656
1.4423400163650513
1.594249963760376
2.101720094680786
2.4626200199127197
2.6742799282073975
2.7095999717712402
2.557379961013794
2.254580020904541
1.8928799629211426
1.8412400484085083
1.7205400466918945
1.634559988975525
1.761489987373352
1.6632699966430664
1.3204100131988525
1.5370099544525146
1.8416099548339844
1.6720000505447388
1.601770043373108
1.7546800374984741
1.6505000591278076
1.368299961090088
1.414430022239685
1.5339699983596802
1.5499999523162842
1.5966500043869019
1.75068998336792
1.786329984664917
1.6032999753952026
1.428130030632019
1.346560001373291
1.4360500574111938
1.5859899520874023
1.7449300289154053
1.7666699886322021
1.4455599784851074
1.2400000095367432
1.245360016822815
1.289389967918396
1.395300030708313
1.6334500312805176
1.9229999780654907
2.0952200889587402
2.2381999492645264
