# vtk DataFile Version 2.0
Vessel Segment
ASCII
DATASET POLYDATA
POINTS 64 float
-9.352694473724192 -19.84662885313184 -1.801417029620854
-8.601885368885315 -20.334297254748915 -1.5606036631099993
-7.617878456718815 -20.83588626846653 -1.2453814904781404
-6.733113080602052 -21.065494784658494 -0.9632501775659305
-5.752384742656204 -21.139988647967176 -0.6528604280288359
-4.797055174439361 -20.97818576811545 -0.35450224877903075
-3.8910186443815955 -20.61472638049451 -0.07684117191668167
-3.052872854826535 -20.098978292642492 0.17364187914798307
-2.2813535901608235 -19.47853572197939 0.3966653669392405
-1.5624805383846379 -18.79044970018846 0.5955283787582845
-0.8840366574875986 -18.05683547485845 0.771848801345979
-0.23758888946584542 -17.28956408864718 0.9233780516212855
0.37931128858955976 -16.492693884153862 1.0417541509636248
0.9621281358907705 -15.664579757536348 1.1095769388507488
1.4972338359010802 -14.802391869693864 1.0968146677382864
1.965588699254967 -13.910679739685346 0.9701533710829405
2.3574182645709443 -13.008311767953986 0.7212972955345286
2.6868029800165956 -12.109494546483406 0.38397636286843956
2.9759250083358255 -11.213135714699668 0.00654109300519419
3.23964498928503 -10.308025944496306 -0.36852555237962076
3.478552505691883 -9.383187408975026 -0.710893332147539
3.681371030566649 -8.431818706523204 -0.9999410873152406
3.827724580594432 -7.4522751081300065 -1.2214291136470683
3.8906965054572944 -6.44971332789782 -1.3666319392459576
3.8406579717606872 -5.437981293960376 -1.4321586975800342
3.6512754345900102 -4.440479148833676 -1.4194320183884264
3.3086837036188705 -3.4885031355981266 -1.3347742156792117
2.821224965971261 -2.610461713704689 -1.1864420369652813
2.2146411663990655 -1.8226630027845372 -0.9811533948015413
1.5222960446566098 -1.128167881484634 -0.7193664971428496
0.7751255351037327 -0.5222345461622556 -0.3957770259923898
0.0 0.0 0.0
-0.7791310703335254 0.4380387777091783 0.4809053206902524
-1.5373086008396637 0.7834978899414121 1.0608592825277814
-2.2439090785103226 1.0156264259794676 1.7521016555443714
-2.8565520752607014 1.1006457952442728 2.5584653486825095
-3.3143741399545803 0.9966356895791361 3.459992693730313
-3.561981178135693 0.6951360310492183 4.397609972467549
-3.5854999056436836 0.23795312352339837 5.305382324250313
-3.4171980589681716 -0.3046692296626303 6.147084160748629
-3.1030209790979035 -0.8753504094800159 6.925425083765023
-2.6825094445867608 -1.4342079941278516 7.660824095932659
-2.1875086039107603 -1.9527460166045632 8.379102536471043
-1.645549194808732 -2.4080120141008554 9.106262908606917
-1.0837943434899444 -2.779638082018306 9.865376084191835
-0.5317574066374803 -3.0514163978328104 10.672596078272786
-0.019769272892179442 -3.2159300940367284 11.533326057261217
0.4284917681248816 -3.27868071353527 12.441757682277572
0.8007276849038433 -3.256289856580002 13.385758490289103
1.0960828707309311 -3.170908387512841 14.352853607450498
1.3209275721557256 -3.043550198507611 15.334164804646614
1.4841107374071045 -2.891270173562309 16.32397883054319
1.592111729078955 -2.7262592706089497 17.319333395781843
1.6471701795140192 -2.5576745144432653 18.318391906899844
1.6476079040987843 -2.3936998958323774 19.319716060180987
1.58845786596825 -2.243965288630367 20.321598173010432
1.463117238857782 -2.1216754397373014 21.321046150306884
1.2640899231072475 -2.0485112095747287 22.31386204068489
0.9882001426239588 -2.0516269188086085 23.29018048266986
0.6370324239497053 -2.168274945160261 24.23349488012533
0.21093778282118536 -2.4559444994497066 25.12659164955414
-0.221316864484154 -2.854781065857309 25.884580325849996
-0.7502458273239686 -3.568627723411944 26.609150434832674
-1.1669013216726918 -4.236766707827178 27.10031206903797
LINES 1 65
64 0 1 2 3 4 5 6 7 8 9 10 11 12 13 14 15 16 17 18 19 20 21 22 23 24 25 26 27 28 29 30 31 32 33 34 35 36 37 38 39 40 41 42 43 44 45 46 47 48 49 50 51 52 53 54 55 56 57 58 59 60 61 62 63
POINT_DATA 64
SCALARS MaximumInscribedSphereRadius float
LOOKUP_TABLE default
1.2400000095367432
1.142449975013733
1.0341600179672241
1.0492199659347534
1.2312500476837158
1.515779972076416
1.499619960784912
1.435189962387085
1.4246000051498413
1.4996399879455566
1.571120023727417
1.4751800298690796
1.3640199899673462
1.2592300176620483
1.1870800256729126
1.2519199848175049
1.4556599855422974
1.6636799573898315
1.8344199657440186
1.9388699531555176
1.8958300352096558
1.768530011177063
1.5558799505233765
1.34128999710083
1.2400000095367432
1.2400000095367432
1.2497199773788452
1.2637300491333008
1.3443000316619873
1.5965100526809692
1.8716299533843994
2.030400037765503
2.141010046005249
2.1677699089050293
1.9543700218200684
1.6654800176620483
1.6770600080490112
1.766610026359558
1.7709699869155884
1.6302399635314941
1.5680500268936157
1.5499999523162842
1.5880000591278076
1.683940052986145
1.815209984779358
1.8508800268173218
1.8600000143051147
1.8600000143051147
1.856950044631958
1.8324300050735474
1.6122100353240967
1.3925800323486328
1.3077199459075928
1.4396899938583374
1.531000018119812
1.3903499841690063
1.2476400136947632
1.2329000234603882
1.4229799509048462
1.4506900310516357
1.3415000438690186
1.3249399662017822
1.4403799772262573
1.5809999704360962
