# vtk DataFile Version 2.0
Vessel Segment
ASCII
DATASET POLYDATA
POINTS 64 float
-4.5863592893930525 -12.798106215797539 -3.098178568954194
-3.7439556336814306 -12.587188390087187 -3.676397508309518
-3.0084084480376743 -12.234044536805541 -4.211685455618428
-2.2967350726501183 -11.70019774113228 -4.722903028513016
-1.6806880490703462 -10.99869955366398 -5.112156104550495
-1.1470344770823526 -10.169430723331102 -5.350241898135103
-0.6826806693631968 -9.272758934480034 -5.446829315103193
-0.2632811863179549 -8.348978723468292 -5.4517066505583
0.12525564594234348 -7.412228180364534 -5.420712583678258
0.4763422829001688 -6.460442264638474 -5.406249925548068
0.7541495757437008 -5.486319398911365 -5.459467059574203
0.8775424144899291 -4.494856477608912 -5.632069689474956
0.7218078847154276 -3.5465687877796332 -5.952066324148617
0.22590053934792084 -2.7634060011765658 -6.360117613855872
-0.5270986910490192 -2.205139448847146 -6.746045567857555
-1.4215073663255344 -1.8294345910721241 -7.041671398562864
-2.386241532419695 -1.571476188412455 -7.219446111808522
-3.3808837118019346 -1.3772432663013312 -7.263250662412703
-4.373909147066311 -1.2011179973505506 -7.1549844487413505
-5.32494729956606 -0.9984724497672991 -6.866714933463227
-6.157525382205876 -0.7220872260592288 -6.360861648946173
-6.6571784640196 -0.31447562911833365 -5.573061682117384
-6.340298363196283 0.10020751680143519 -4.728809186713698
-5.455636481035128 0.26132630110331634 -4.264182208836395
-4.462216651883943 0.21622319270643542 -4.067290429628078
-3.4675103677533907 0.041418762025777614 -3.9697349827962665
-2.4964220227739133 -0.2209089073289829 -3.839112140784545
-1.586699402196273 -0.5086256235317403 -3.4946452915708237
-0.8781186392490313 -0.6664636356445773 -2.7915439053026248
-0.44055643205768413 -0.6023220508091296 -1.8796088860211737
-0.1743377575957985 -0.3653238650364677 -0.9301773456624086
0.0 0.0 0.0
0.12169183382103811 0.4749684136690028 0.888056490907132
0.21261281927463926 1.048574446388691 1.7197842352444699
0.28809476839544623 1.7041365887751245 2.4903551605723138
0.36179026288666544 2.4162591207515947 3.209301721205806
0.4432619019543613 3.1557568292246247 3.8990847433942766
0.5342828478813988 3.898458088272431 4.584356599995014
0.6291246032873602 4.627323702757984 5.283732549644674
0.7171260223032092 5.328720686818099 6.011545169101637
0.7848213885179453 5.986876128252556 6.780701574315834
0.8163519183135566 6.576592096849087 7.605534563073517
0.7973069596161715 7.060599127006797 8.496707991990666
0.7213680148956687 7.398761457132911 9.449838056135718
0.5986557523606463 7.570612282636886 10.44192681401476
0.4535507704070508 7.58561427373044 11.445743148253936
0.31428463573442367 7.467749208837528 12.443652785384305
0.20607546393744347 7.237821429405025 13.425772067918956
0.1495718882457071 6.9081275632676356 14.383463917973524
0.15931229056043256 6.4861283433217505 15.305925569039873
0.23896651273381764 5.980947506545642 16.18203015486256
0.37586932137091916 5.407903105489615 17.007923495173852
0.5427020061668637 4.787995814291615 17.79361961439568
0.7087795307315847 4.143226046073032 18.55914489387143
0.8522873901718051 3.495896492588668 19.327132415190245
0.9657631034743484 2.8724183825978367 20.11941090088906
1.052458733629722 2.3076064339590046 20.957686638253772
1.119530370690685 1.853290196581462 21.862082161903007
1.1784553626328946 1.5912915211084755 22.83979412322661
1.2525257170382684 1.6296610792053294 23.849535674331193
1.3758631096157967 2.0248006852385463 24.771715357735204
1.5804684109566982 2.7253378347769717 25.490357727197107
1.8417834804418347 3.5375485781204885 25.964944504740906
2.190834968361747 4.4772285163806345 26.253693474906765
LINES 1 65
64 0 1 2 3 4 5 6 7 8 9 10 11 12 13 14 15 16 17 18 19 20 21 22 23 24 25 26 27 28 29 30 31 32 33 34 35 36 37 38 39 40 41 42 43 44 45 46 47 48 49 50 51 52 53 54 55 56 57 58 59 60 61 62 63
POINT_DATA 64
SCALARS MaximumInscribedSphereRadius float
LOOKUP_TABLE default
1.5809999704360962
1.2505700588226318
1.0182000398635864
1.1357100009918213
1.1505800485610962
1.0042599439620972
1.1275299787521362
1.2949899435043335
1.4607700109481812
1.4218699932098389
1.0627000331878662
1.1463099718093872
1.5553499460220337
1.3394999504089355
1.1512500047683716
1.0325499773025513
1.0955300331115723
1.2300100326538086
1.5508400201797485
1.7926900386810303
1.662060022354126
1.6972399950027466
1.8475899696350098
1.9044400453567505
2.0641300678253174
1.9196100234985352
1.6761300563812256
1.7903000116348267
1.8586100339889526
1.7074300050735474
1.372730016708374
1.3050600290298462
1.3558499813079834
1.3061200380325317
1.2858099937438965
1.47475004196167
1.6549400091171265
1.776319980621338
1.6059199571609497
1.2994799613952637
1.411620020866394
1.6337599754333496
1.9814900159835815
2.0551700592041016
1.8559800386428833
1.7837599515914917
1.7713799476623535
2.0030200481414795
2.163130044937134
2.1700000762939453
2.1700000762939453
2.1700000762939453
2.1700000762939453
2.1700000762939453
2.1700000762939453
1.9190900325775146
1.3974599838256836
1.7502199411392212
2.3539700508117676
1.8254300355911255
1.5499999523162842
1.5499999523162842
1.5499999523162842
1.5499999523162842
