# vtk DataFile Version 2.0
Vessel Segment
ASCII
DATASET POLYDATA
POINTS 64 float
0.15578497130086363 -14.617725672176556 -1.4390427928496388
0.4959700496420248 -14.347659363024148 -2.389546128958153
0.5725151116049667 -13.791904169630394 -3.190266008595841
0.5552789063934429 -13.033076171666458 -3.871406338578423
0.5120228816470564 -12.153516534345147 -4.373484725723571
0.4887660722934277 -11.205859045164637 -4.734183397409616
0.48543614619122394 -10.227614515511549 -5.003246356265038
0.4708950059618597 -9.243526675181878 -5.249693033392365
0.3700195985348944 -8.284296737041952 -5.563179260911147
0.04161414914840962 -7.437978909066046 -6.0105540632466115
-0.6076748639231393 -6.829782942200864 -6.491933846782376
-1.4874290535209265 -6.452343574484178 -6.823630644412658
-2.465030338363187 -6.2130581381152945 -6.94458491886208
-3.465742143212895 -6.055420091275068 -6.8899224754865385
-4.460313793499453 -5.954891216808826 -6.723524588276599
-5.445224817284334 -5.902755628315499 -6.504340869224994
-6.478159204619186 -5.91706612680723 -6.1843758299016836
-6.870102814855371 -5.8345905497141155 -6.644172312178977
-5.793932419451272 -5.554282072243433 -6.77531197097671
-4.864126024313174 -5.214438902015665 -6.820824535305276
-3.930897309684537 -4.8265848439695045 -6.715733390745231
-3.0260303968423337 -4.41293349872196 -6.515018465823192
-2.1373650852361927 -4.002099653699144 -6.249587040020774
-1.2539888429210873 -3.6231264877049085 -5.925099367689432
-0.3957147849030572 -3.2831595096362203 -5.504723663749087
0.3563921332337898 -2.945298390664907 -4.91516036585803
0.8621301283003006 -2.5585766035053736 -4.128280983220184
1.0527678702043421 -2.116758000503614 -3.2366821058173842
0.993337965272177 -1.6378523476530666 -2.344995107064517
0.7658191963539438 -1.1275095873485246 -1.4985648839949308
0.42345366525625433 -0.5827515547336987 -0.7143509853798051
0.0 0.0 0.0
-0.4770678199766539 0.6202642930418542 0.6455295543067578
-0.9790809104841751 1.2749869226156127 1.2360084815625252
-1.4680109921495272 1.9610431129107717 1.8014282365115035
-1.893114339832343 2.673446558593839 2.3853104664561027
-2.199650993669791 3.392490260235563 3.0314291753459117
-2.3612938716983454 4.075428157175021 3.763411134569132
-2.397492122657294 4.6721633953915385 4.582623997915143
-2.3450373480243236 5.13710157695362 5.482337176934884
-2.2345796347117832 5.423598299420482 6.448599343361925
-2.0818225706860596 5.484585674768984 7.448755210062691
-1.8892368987297627 5.301520918978006 8.426929939380514
-1.6585856439904583 4.9154580849031655 9.335800266718657
-1.398235731622003 4.400026167870947 10.169788447371076
-1.118487492777587 3.814049511431419 10.949353013125153
-0.8273409581806122 3.1922236789409317 11.696320862975622
-0.5273602850773657 2.5582007568389953 12.429412426507094
-0.21462395677212606 1.9378116605310045 13.16878147266665
0.11902027248138763 1.3681537417431966 13.939099247500417
0.48086882293906713 0.9023720178077058 14.764246781641587
0.869698982509476 0.6143683938775446 15.655073741454226
1.26651707229331 0.6097430102208486 16.586807664899865
1.6231119201147663 0.9762967533509955 17.459935848277205
1.900369185720353 1.6528663209314174 18.161097108942045
2.1063032227579375 2.5014044340946673 18.676673532641768
2.257581001404233 3.4348378444533165 19.043375605880904
2.352880657892626 4.413928531384093 19.29073279897344
2.3822771712500526 5.4175528559635255 19.434928315820013
2.3463221861868235 6.429941550233958 19.48862544663472
2.2700823738705767 7.441707328902905 19.477744493903682
2.212022730901127 8.45329076046697 19.464524470730044
2.260121146637231 9.458703765891267 19.54934440070224
2.7904656157834027 10.056795945556251 20.182053201014202
LINES 1 65
64 0 1 2 3 4 5 6 7 8 9 10 11 12 13 14 15 16 17 18 19 20 21 22 23 24 25 26 27 28 29 30 31 32 33 34 35 36 37 38 39 40 41 42 43 44 45 46 47 48 49 50 51 52 53 54 55 56 57 58 59 60 61 62 63
POINT_DATA 64
SCALARS MaximumInscribedSphereRadius float
LOOKUP_TABLE default
0.9300000071525574
0.9300000071525574
0.9300000071525574
0.9300000071525574
0.7902389764785767
0.7154260277748108
0.9680789709091187
1.1797699928283691
1.013350009918213
0.9300000071525574
1.155460000038147
1.6429500579833984
1.3609199523925781
1.0073000192642212
0.9300000071525574
0.9507169723510742
1.1593300104141235
0.8578169941902161
0.756829023361206
0.9146450161933899
0.9300000071525574
0.9300000071525574
0.9375119805335999
1.091439962387085
1.2400000095367432
1.2400000095367432
1.2400000095367432
1.2400000095367432
1.2546700239181519
1.365630030632019
1.533769965171814
1.393280029296875
1.305150032043457
1.439020037651062
1.4052200317382812
1.0946300029754639
1.1931099891662598
1.4792799949645996
1.3595499992370605
1.1754200458526611
0.9903429746627808
1.3314100503921509
1.8157099485397339
1.7331899404525757
1.7250900268554688
1.8260200023651123
1.6080800294876099
1.3184900283813477
1.26010000705719
1.2771999835968018
1.2771999835968018
1.2888200283050537
1.3124300241470337
1.267009973526001
1.2400000095367432
1.262279987335205
1.5819100141525269
1.868899941444397
1.8674999475479126
1.7702300548553467
1.5840400457382202
1.25872004032135
1.2250699996948242
1.8600000143051147
