# vtk DataFile Version 2.0
Vessel Segment
ASCII
DATASET POLYDATA
POINTS 64 float
-8.3026778350595 -7.638212975392731 -3.5083881641805448
-8.054703060147048 -8.622252946493902 -3.7596652923232132
-7.568805876451142 -9.447744034634631 -3.942107835286156
-6.900877860253136 -10.21271401936398 -4.071040954509755
-6.1144097297209825 -10.849009662980938 -4.120988538687011
-5.24667534814589 -11.373512346257128 -4.091891077895666
-4.324250187139804 -11.780811822872135 -3.9819845012392943
-3.367369452457138 -12.056456281187584 -3.7894895672883893
-2.3978893314907217 -12.166504720415112 -3.513409132315501
-1.4544461082197937 -12.049837429409544 -3.1618419436764356
-0.6139929368530915 -11.642792672878416 -2.7696713163529454
0.05362591819372477 -10.977440331573485 -2.396660202719325
0.5901492727999413 -10.180525079848834 -2.070477246133779
1.1023976055861961 -9.352068439229953 -1.7864962161109403
1.674440289736524 -8.547981335942966 -1.5513937601627015
2.3357583208367387 -7.79591623654989 -1.3902551095315092
3.062675037042879 -7.091387085786335 -1.3250269668981058
3.810146556466018 -6.406983276440958 -1.370419845002544
4.517698477559233 -5.7014078476550125 -1.5437926803431807
5.062071792523161 -4.913341715212639 -1.876376582220017
5.151772358472974 -4.03889797856974 -2.363341852411451
4.689105207224366 -3.270934041269568 -2.8358616598854662
3.96765632573916 -2.658746995052304 -3.2013882703688803
3.152559979221476 -2.1249067681500513 -3.483919161589468
2.3005644046448506 -1.6179189202049014 -3.6990883584401546
1.439217065340888 -1.1008717872123348 -3.842067284441974
0.5933422300679658 -0.5434794898560646 -3.868064880348121
-0.17670944626107843 0.06701643544755337 -3.623870980430047
-0.6096352127640496 0.5323904055275333 -2.848496051855903
-0.5861527503315055 0.5892041058978367 -1.8346809129568293
-0.3527343494288456 0.3795528462765299 -0.8718957501388703
0.0 0.0 0.0
0.4511808557829811 -0.4986183064300977 0.7591654652103746
0.9992254720010668 -1.0663496412657498 1.3963514728505764
1.645505986162857 -1.6429428736089042 1.9243505922694235
2.3866359474935326 -2.159190665291281 2.386007867829594
3.2044641135797134 -2.536374324983208 2.8521168904760756
4.0418284600558625 -2.6806862408035457 3.4042090812741748
4.775169008621421 -2.521126932783642 4.083720623037913
5.279114800252772 -2.085845247990277 4.846908187623228
5.523592872049675 -1.473582996679013 5.616871145211091
5.553089964673506 -0.7686281931372985 6.345237072070206
5.424378230481296 -0.01845177522436273 7.01565294160817
5.190659749758073 0.7532006907118102 7.6313622089650845
4.89951398988916 1.5341978477477067 8.209831687681465
4.5914829153133585 2.3162287244030138 8.778282172183658
4.298041506434844 3.0844627262708504 9.37232378008168
4.031467510036446 3.80478294140646 10.035098424483815
3.7653631778309284 4.406935342393836 10.806304754127591
3.4199083445650498 4.77660577606376 11.684171316311835
2.911878984524949 4.806116682001446 12.559141663626953
2.2622927577424954 4.55972080091059 13.297438795827189
1.5369052020062295 4.19148649897381 13.903347601751902
0.7681765048550542 3.788107794757524 14.428359717572413
-0.028637524712044275 3.3875626841294584 14.912165348933426
-0.8429699652628263 3.0057359430788826 15.381713692145613
-1.6636530296816947 2.6434097993297003 15.855653617432356
-2.4784673136498077 2.2912990712843393 16.34706889025038
-3.274446383544818 1.9355571719405382 16.865998905858763
-4.039054865751979 1.569735868138406 17.423736404816893
-4.759527909718324 1.2057930200294358 18.035487862134687
-5.4289873208173764 0.8747834033599484 18.737801277334835
-5.999065482650922 0.6254917858987555 19.486881516894293
-6.501313914872204 0.4953222608581236 20.395228914643024
LINES 1 65
64 0 1 2 3 4 5 6 7 8 9 10 11 12 13 14 15 16 17 18 19 20 21 22 23 24 25 26 27 28 29 30 31 32 33 34 35 36 37 38 39 40 41 42 43 44 45 46 47 48 49 50 51 52 53 54 55 56 57 58 59 60 61 62 63
POINT_DATA 64
SCALARS MaximumInscribedSphereRadius float
LOOKUP_TABLE default
0.6200000047683716
0.8087080121040344
0.8784229755401611
0.7404850125312805
0.9207370281219482
1.203909993171692
0.9625530242919922
0.842602014541626
1.1294900178909302
1.0833300352096558
0.9300000071525574
0.9371600151062012
0.9642710089683533
0.9613400101661682
0.9361429810523987
0.9577379822731018
1.1327099800109863
1.5568300485610962
1.5743199586868286
1.272089958190918
1.1656700372695923
1.1979000568389893
1.2379900217056274
1.2400000095367432
1.2400000095367432
1.2400000095367432
1.2400000095367432
1.2400000095367432
1.2400000095367432
1.2400000095367432
1.2400000095367432
1.3008999824523926
1.3717600107192993
1.3018300533294678
1.254870057106018
1.2689299583435059
1.3889100551605225
1.5000200271606445
1.321869969367981
1.2566699981689453
1.271720051765442
1.2558000087738037
1.314710021018982
1.4860800504684448
1.5489699840545654
1.5478099584579468
1.3991899490356445
1.2625099420547485
1.2400000095367432
1.2400000095367432
1.1525499820709229
1.0371299982070923
1.2716399431228638
1.5184099674224854
1.5499999523162842
1.5499999523162842
1.5445499420166016
1.3538999557495117
1.0163500308990479
1.1203500032424927
1.1858899593353271
0.998947024345398
0.8066909909248352
0.6200000047683716
