# vtk DataFile Version 2.0
Vessel Segment
ASCII
DATASET POLYDATA
POINTS 64 float
-8.916646021446017 -13.516062256336289 -1.4061743151942638
-8.020354655380476 -13.73484991766385 -0.9123985350366091
-7.0898154834283496 -13.881538783182881 -0.6645588000140512
-6.075087842228325 -13.967357670654211 -0.5593122275009395
-5.0624516446542565 -13.966238508422897 -0.589899504358278
-4.0593280057912775 -13.869471564983868 -0.7056946523825289
-3.080474769570576 -13.660521275888259 -0.8706573229561074
-2.142645981092683 -13.319272972473534 -1.0517071756702256
-1.2706908784776352 -12.82897385118861 -1.218431147509868
-0.49543829866014766 -12.1876374090908 -1.345107304313023
0.15973936500484648 -11.416691170588706 -1.4146467125767264
0.6922948562189943 -10.55348696815773 -1.4218503794243433
1.1173589720849733 -9.633898938252365 -1.369865483330237
1.4570927120727624 -8.683038148227965 -1.2715687384097112
1.7312454218954307 -7.712451209277651 -1.1616197314831098
1.94499496193699 -6.721865113252673 -1.1120500782767895
2.0605424738165334 -5.722296414085684 -1.2332455621960288
2.012895616317308 -4.761671350264999 -1.5532818771938206
1.7873122767596556 -3.863062493012946 -1.9656330428253048
1.4006375236345596 -3.016264854009354 -2.3681780794479788
0.8731857254696443 -2.2167853440355296 -2.701719515532376
0.23256307272181131 -1.4653668684350918 -2.933457658252805
-0.48751832226352654 -0.7600381072496669 -3.046865048966815
-1.2514357703555925 -0.0928596485761051 -3.033203715131467
-2.023945982337068 0.5464854462668636 -2.881358499271911
-2.7583793033086086 1.1665989258074667 -2.5575591817508934
-3.345250103031472 1.7526122029865077 -1.968649551274797
-3.2676517700300867 2.013164290615519 -1.0592933969389284
-2.4780518559988844 1.6788241731028208 -0.48877541271689573
-1.6401032747755473 1.170098925377534 -0.2365372394594729
-0.8127422635235992 0.5994261963742596 -0.09833862934149906
0.0 0.0 0.0
0.8063498336402185 -0.6041085523364486 0.11918869107908098
1.614624233689054 -1.1799946842615563 0.3285277062118409
2.4155640645612015 -1.6645306795903492 0.7173939559626982
3.1426598087543813 -1.9547209099241254 1.3589835722078298
3.695641375350941 -1.9897066096046383 2.206864027699088
4.053598251970425 -1.8252793971049646 3.1411494894074634
4.262155971259763 -1.545651873699368 4.093606190643912
4.369346705002074 -1.2061199867963248 5.043514252456806
4.408735324030301 -0.8366777229527548 5.987611490456431
4.400838607989845 -0.4531570540653521 6.926868239872282
4.3571418236525945 -0.06419923880754828 7.862944141950026
4.280620507194452 0.3238099873272126 8.797287764000368
4.163629563835002 0.7035534475848882 9.730806888016863
3.987105694565035 1.0619208426470474 10.66339735212239
3.7237549364522433 1.3750984574280085 11.591619126004744
3.3473769628157344 1.608420646017383 12.504091039998853
2.8491372463925453 1.726082213643891 13.379483802048366
2.248616409119072 1.7089138978282754 14.196567629323626
1.5844413113506066 1.5610721639038834 14.94876845827231
0.8938172846973618 1.2967564104263756 15.643169998219069
0.2058542403977423 0.9296270300182164 16.292028821614377
-0.45688927579646255 0.47284791215249866 16.909529574994448
-1.077188933947323 -0.057085883269975296 17.512561166191077
-1.6420798600734934 -0.6389219756615656 18.122161134596293
-2.1413658610227375 -1.246867803735026 18.76275513496361
-2.565854849384924 -1.8512574783269657 19.4581597139732
-2.905318317680714 -2.421819339086762 20.225169197267938
-3.1492490345765343 -2.935017149049523 21.065408500847187
-3.290684013243278 -3.383098626338649 21.962681529060685
-3.3262594007341457 -3.7765684929565317 22.908749249273235
-3.2737075894568184 -4.107406549933918 23.82165981066863
-3.116419789968804 -4.424796215604244 24.807242399069548
LINES 1 65
64 0 1 2 3 4 5 6 7 8 9 10 11 12 13 14 15 16 17 18 19 20 21 22 23 24 25 26 27 28 29 30 31 32 33 34 35 36 37 38 39 40 41 42 43 44 45 46 47 48 49 50 51 52 53 54 55 56 57 58 59 60 61 62 63
POINT_DATA 64
SCALARS MaximumInscribedSphereRadius float
LOOKUP_TABLE default
0.9300000071525574
0.9605900049209595
0.9794589877128601
0.9875839948654175
1.3983800411224365
1.7927299737930298
1.4422399997711182
1.1589100360870361
0.9644489884376526
1.0874600410461426
1.2288800477981567
1.2400000095367432
1.115939974784851
0.9505800008773804
1.2026599645614624
1.6803900003433228
1.4777799844741821
1.2651100158691406
1.7745100259780884
1.6254299879074097
1.5499999523162842
1.5499999523162842
1.5499999523162842
1.4901200532913208
1.3131099939346313
1.3868099451065063
1.643149971961975
1.831470012664795
1.6051100492477417
1.2543400526046753
1.2400000095367432
1.2400000095367432
1.2400000095367432
1.2400000095367432
1.248020052909851
1.2663400173187256
1.2511299848556519
1.3594800233840942
1.5450700521469116
1.7226799726486206
1.8414100408554077
1.8600000143051147
1.7909300327301025
1.6139700412750244
1.43163001537323
1.2978500127792358
1.431339979171753
1.5499999523162842
1.5499999523162842
1.5499999523162842
1.5246100425720215
1.4336899518966675
1.3433500528335571
1.27469003200531
1.3889700174331665
1.6425299644470215
2.2983999252319336
2.390010118484497
1.968790054321289
2.107379913330078
2.453660011291504
2.8961100578308105
2.689069986343384
2.1700000762939453
