# vtk DataFile Version 2.0
Vessel Segment
ASCII
DATASET POLYDATA
POINTS 64 float
-8.098181269359458 -24.459979606044207 0.32995997439210717
-7.507022244760272 -24.089292758292252 -0.20013161370383234
-6.677598546733029 -23.513795844507463 -0.8786670503195863
-6.028753284833665 -22.959520772232178 -1.2805843790148774
-5.332060449077426 -22.281054138339105 -1.59462248754963
-4.6616187509271185 -21.521108314066232 -1.7322310888480206
-4.0456957505022 -20.719545051160683 -1.6788274297631307
-3.4743739133418923 -19.904123502412595 -1.4749891308005771
-2.9379918759492676 -19.10007193689943 -1.1653709136705332
-2.4148183752005727 -18.31399884746352 -0.7941097558519605
-1.883534644913228 -17.546104780682647 -0.3970369107555129
-1.327275370022302 -16.79490310748964 -0.002347206491708209
-0.7340936881295325 -16.057913574922285 0.3647177001164126
-0.0991218257871908 -15.33111305671239 0.6784971161125998
0.5728273690132334 -14.60657790969678 0.9103985418950045
1.262004037900032 -13.870396598285364 1.0297905091738961
1.9246687714401667 -13.101499562698983 1.0134408787823137
2.5107303588129963 -12.284313322278436 0.8724615262843454
2.983597757110555 -11.413501860916305 0.6504960656504886
3.339189027187859 -10.494961746095907 0.4047527582331066
3.5910480049646836 -9.539407955946276 0.17282223569482005
3.755496224252414 -8.55805897718667 -0.02721364985705426
3.8425487011198416 -7.560368601202589 -0.19151319113012316
3.853444826001553 -6.5540395951987245 -0.32266535099667715
3.781807435861531 -5.5467403998827916 -0.4245489982547218
3.6143584098864836 -4.548437804105624 -0.5002489084601224
3.331921565978534 -3.5743202519737687 -0.550033709022595
2.9146382267961077 -2.648722143551008 -0.5683937787339725
2.353435075990787 -1.8023715166843917 -0.5428672401063377
1.6581842567955456 -1.0669059214686691 -0.4540954911611804
0.8598902451724102 -0.46314530965328 -0.2797535944831173
0.0 0.0 0.0
-0.8764886925069613 0.32155858166564794 0.4006599554562286
-1.7224489597182167 0.5027290016802071 0.9342304957804114
-2.482644370654902 0.5370906508070412 1.6091493304685482
-3.0877391309958835 0.41662670569364985 2.4176681052005153
-3.4636307934183668 0.14400692641397034 3.324058133176454
-3.5729934302827138 -0.24336316558572907 4.256921094504226
-3.4439138869714667 -0.6908295724080736 5.161607751705973
-3.144804853438595 -1.146283065779651 6.018214163832366
-2.7397775463994267 -1.577890818151563 6.84270878812817
-2.2759489804042463 -1.9629212022417981 7.659185111496689
-1.7904604931778278 -2.28053696610871 8.49181049905531
-1.3160036989823802 -2.5092629677395966 9.359724979668224
-0.8824922040903822 -2.6312972647317903 10.269350141628006
-0.5073121648448262 -2.6457380868580938 11.212584212076452
-0.19319742283044944 -2.570439552571824 12.174774289458691
0.0709263034811125 -2.4379623537760575 13.145528794169003
0.2978959181954355 -2.2832449367094014 14.12233076360845
0.49732990811332195 -2.1398091042374516 15.106770013678467
0.6729695271611803 -2.037383872613598 16.101018843278815
0.8219657097753066 -1.9973278538298904 17.103968747846768
0.9383372856980434 -2.024826605442216 18.11170078024344
1.017035559315759 -2.108452429162268 19.1199640638875
1.0576179271276565 -2.224729636573993 20.1271777310371
1.0643307016070922 -2.3501226733043854 21.13383564833193
1.0471016364200818 -2.468471372165442 22.14154268339212
1.019529091087402 -2.5747994316500775 23.15100371989724
0.9962672251205925 -2.6742799371632597 24.15675048089919
1.0094842821365084 -2.801197993255578 25.169979119285937
1.0814329028588325 -2.981350589850193 26.17184890884848
1.2099473370554823 -3.20956448956895 27.08568626598159
1.5812167039089744 -3.7210442436607765 28.116242612495654
1.9216502024706423 -4.167149041891564 28.79380848137073
LINES 1 65
64 0 1 2 3 4 5 6 7 8 9 10 11 12 13 14 15 16 17 18 19 20 21 22 23 24 25 26 27 28 29 30 31 32 33 34 35 36 37 38 39 40 41 42 43 44 45 46 47 48 49 50 51 52 53 54 55 56 57 58 59 60 61 62 63
POINT_DATA 64
SCALARS MaximumInscribedSphereRadius float
LOOKUP_TABLE default
0.9796000123023987
1.0492600202560425
1.1259900331497192
1.198199987411499
1.2330399751663208
1.2400000095367432
1.2917100191116333
1.420240044593811
1.5818300247192383
1.5463900566101074
1.3736799955368042
1.1741100549697876
1.085729956626892
1.0334999561309814
0.9933189749717712
1.1351100206375122
1.1948000192642212
1.1594599485397339
0.9658179879188538
1.0705300569534302
1.2807899713516235
1.5351999998092651
1.556730031967163
1.571310043334961
1.5608799457550049
1.4601999521255493
1.3509600162506104
1.2760200500488281
1.2582600116729736
1.2507799863815308
1.2815500497817993
1.335919976234436
1.3798799514770508
1.388800024986267
1.4196200370788574
1.4974000453948975
1.697350025177002
1.8164900541305542
1.8719799518585205
1.8816900253295898
1.9637000560760498
2.0643599033355713
2.165339946746826
2.05472993850708
1.9562300443649292
1.8847999572753906
1.8847999572753906
1.9101799726486206
1.9720499515533447
2.077039957046509
2.0985400676727295
2.034209966659546
1.9010900259017944
1.7165900468826294
1.4886499643325806
1.3156499862670898
1.2400000095367432
1.2400000095367432
1.2400000095367432
1.2400000095367432
1.2400000095367432
1.2400000095367432
1.2400000095367432
1.2400000095367432
