# vtk DataFile Version 2.0
Vessel Segment
ASCII
DATASET POLYDATA
POINTS 64 float
-2.3893642015404386 -16.287251140755874 -0.5247653384461215
-1.884078953929096 -15.995160994340269 -1.3905753830826915
-1.4093000412080832 -15.409042205485887 -2.0122656852150036
-0.9687238683655025 -14.645551530480997 -2.530671530515877
-0.6111541094473454 -13.793169278511325 -2.9456914209820018
-0.332766730501073 -12.888707720875257 -3.311398166836289
-0.12768103873779377 -11.951123406763642 -3.640274744702629
0.024858278318637902 -10.989490383133065 -3.925406499303001
0.15917924120972268 -10.008860612407112 -4.148119507604772
0.30991431636780126 -9.016092521992935 -4.292672033177476
0.4841448733981227 -8.019326609122338 -4.3665923931036215
0.6298269062545808 -7.016509464131764 -4.41543121017319
0.5995259141191023 -6.00883013733089 -4.528794410827502
0.18785682473699655 -5.1237270878688586 -4.786389891943141
-0.5570060787331638 -4.517652127027911 -5.108561490506744
-1.4605491423431227 -4.143337749528628 -5.375492862100391
-2.4388667286578927 -3.9274395532356703 -5.533048640979234
-3.447207573122301 -3.8215390185983975 -5.559544918113317
-4.454680438591655 -3.785759171622881 -5.447578693537522
-5.436262600761641 -3.7815024014453282 -5.191124103608664
-6.357787037139226 -3.7628808271972813 -4.772110693552168
-7.149633849910648 -3.660259392146731 -4.140779738359271
-7.367616085656742 -3.288808320742934 -3.23936534662466
-6.692645351858358 -2.8242746384283257 -2.654477248117817
-5.7857469976251625 -2.464614458781833 -2.390701702151272
-4.825763975803911 -2.164356935389687 -2.250209484238023
-3.8542786846246337 -1.8916274587892206 -2.146008088088579
-2.8864510228503453 -1.617604718458734 -2.013386992910217
-1.9463015102129417 -1.313016782084623 -1.7847576486770877
-1.0886093264533403 -0.9471448323414653 -1.3868067751612612
-0.4127308336050469 -0.5035422906499777 -0.7764455908611337
0.0 0.0 0.0
0.16652249727722046 0.5312308981354515 0.8475018639141259
0.16113545524299352 1.0730685242325966 1.7050167137165002
0.05157686525422787 1.6195105897654054 2.552711734309357
-0.11608392868246147 2.16690493014778 3.3903938543906356
-0.31290644256699673 2.709451094862799 4.2248463786339405
-0.5235669111125877 3.23832685925487 5.0646944466326795
-0.742009620946994 3.7402717636374274 5.918899576631987
-0.9677310061973111 4.196719396276961 6.796455416753756
-1.1990960403986903 4.581724806826696 7.706034766521987
-1.4263515349489917 4.862324613346913 8.65398330887124
-1.6266030616058937 5.003569784649768 9.638161726674536
-1.764964735534317 4.979911992895287 10.642517892330916
-1.8050355574739085 4.789152916354482 11.637678289314234
-1.7255122335957775 4.454865667238712 12.591868682277852
-1.5295906681318312 4.013349189234994 13.483697002470459
-1.2365634983038403 3.4994959648452553 14.307802459564547
-0.8726483338508332 2.9407757497797906 15.072406835746362
-0.4657701065848596 2.35785896712447 15.79631924866497
-0.042100308177091525 1.7684676883631103 16.505206390082645
0.37610894203331446 1.1908997063454705 17.226963547134883
0.7714597675574876 0.6481365836998607 17.987499370773712
1.132175943103911 0.1710172758815798 18.806848295666192
1.452526497553069 -0.20086130138702216 19.6944253633999
1.7341618806278964 -0.4236635427635507 20.642854330146477
1.984515435124605 -0.45638349189570687 21.624986190521252
2.2158995710913207 -0.27085754750865315 22.59451321000462
2.4483789083396448 0.12795695941530977 23.49731354841941
2.709902787920633 0.69821964465431 24.29419094685282
3.03215434399931 1.3793907162730552 24.97085981701488
3.4673812889347118 2.1055373566649513 25.54637392256266
4.005865837614447 2.768716205753896 26.02015640066271
4.816817248424124 3.243626841113281 26.475872990432713
LINES 1 65
64 0 1 2 3 4 5 6 7 8 9 10 11 12 13 14 15 16 17 18 19 20 21 22 23 24 25 26 27 28 29 30 31 32 33 34 35 36 37 38 39 40 41 42 43 44 45 46 47 48 49 50 51 52 53 54 55 56 57 58 59 60 61 62 63
POINT_DATA 64
SCALARS MaximumInscribedSphereRadius float
LOOKUP_TABLE default
1.2771999835968018
1.057289958000183
1.0475900173187256
1.2076400518417358
1.2400000095367432
1.1579400300979614
1.0487500429153442
1.163159966468811
1.3043400049209595
1.387369990348816
1.3851300477981567
1.3493599891662598
1.228469967842102
1.2871899604797363
1.4075499773025513
0.8653849959373474
0.9100009799003601
1.3113700151443481
1.8190699815750122
2.0429399013519287
1.6908199787139893
1.5499999523162842
1.7643100023269653
1.6789300441741943
1.6575499773025513
1.7872600555419922
1.6807500123977661
1.4911099672317505
1.3515499830245972
1.5801199674606323
1.8340200185775757
1.8600000143051147
1.853119969367981
1.7560100555419922
1.6506799459457397
1.9031399488449097
2.191149950027466
2.156899929046631
1.9420900344848633
1.6513500213623047
1.7433600425720215
1.949779987335205
2.125420093536377
2.126009941101074
1.9416500329971313
1.640589952468872
1.8970799446105957
2.0224199295043945
1.6861599683761597
1.553629994392395
1.5829600095748901
1.928320050239563
2.075360059738159
1.903939962387085
2.329629898071289
2.6319499015808105
2.066240072250366
1.8600000143051147
1.8600000143051147
1.8286199569702148
1.4696199893951416
1.358109951019287
1.5258599519729614
1.5499999523162842
