# vtk DataFile Version 2.0
Vessel Segment
ASCII
DATASET POLYDATA
POINTS 64 float
-5.155277676061608 -14.311874504890207 -1.1224189680391448
-4.186039274693455 -14.243998219310882 -1.5148647598092841
-3.3159349378624485 -14.064265556001592 -1.9211647306192163
-2.4666701584111146 -13.7106315430614 -2.3553818324191593
-1.7383509806320139 -13.11954784429307 -2.737982966731482
-1.185192403231467 -12.307919261331518 -2.9849501627076624
-0.7643451716264181 -11.390940158249279 -3.087962113208339
-0.3807753397592305 -10.451955281601547 -3.1114660414529585
0.02564597787160356 -9.52251041070217 -3.1285792021444006
0.458002396407158 -8.608159856754915 -3.2069649611837265
0.864891259373395 -7.700204620880323 -3.4031606343811296
1.1487287507839545 -6.78988531812733 -3.746697874614221
1.1686277377257834 -5.898734288378073 -4.226002765786883
0.8149295573114406 -5.108778701937813 -4.7487520284914115
0.14426852833462944 -4.490599136761394 -5.188171909464952
-0.7077216984052752 -4.031561506567869 -5.489386714085147
-1.6438299669723937 -3.6785302634737596 -5.655500699504825
-2.609379317917509 -3.3716468188391797 -5.705293653318278
-3.5718798301432133 -3.0556772613431025 -5.652873172780761
-4.504689199920972 -2.6871687867981167 -5.501671493433114
-5.376906661316582 -2.2388169888238223 -5.243774270104779
-6.143166040447581 -1.7015480288969496 -4.85429506434952
-6.708461345453847 -1.0941548880468213 -4.272463303486758
-6.7920229583668705 -0.5707773669198681 -3.42267720717659
-6.239607126999905 -0.4528989847706093 -2.591732144114217
-5.4376396101228455 -0.6113840912621357 -1.9941617521607915
-4.555281359360747 -0.8415211133094187 -1.5496862941497156
-3.6236684207062755 -1.0287403171453755 -1.1947838933662893
-2.6595297578711565 -1.0751099148829364 -0.8844349808706605
-1.7044234521966521 -0.9106701884942889 -0.587834393901624
-0.810083521936132 -0.5351942632374637 -0.2930099066732059
0.0 0.0 0.0
0.7272885413575151 0.6434670271687909 0.29303309797349353
1.3799963804580868 1.3582055010225824 0.5966255643960096
1.964373718567768 2.1159345825417906 0.9335987437182045
2.4804214653161005 2.891023311248797 1.3360364540545742
2.9175913178852286 3.6553288352529103 1.8392795717746382
3.2517922231316057 4.372788911926172 2.4728541921868357
3.4480369323410245 4.99256663602877 3.250255333046666
3.475711826605463 5.454416823614049 4.15152027187414
3.3347928571989773 5.716029969452541 5.120204206001943
3.06510657591402 5.7838508444363494 6.095137305992086
2.7192252108033474 5.700986628177171 7.044983217536158
2.3380655206628855 5.5147083139443 7.966447719744912
1.9468913603319231 5.259280421089902 8.86702799638261
1.559850963745685 4.949382435770856 9.752160030510645
1.1840409032740453 4.57707658854789 10.617805975952873
0.8245914552995731 4.115338199693544 11.446333707568307
0.48982505224284467 3.5382871099026745 12.210172800023527
0.19087568334285368 2.851354788703572 12.89395516363264
-0.06645479035185622 2.0961463346952107 13.520639213327168
-0.28351008465312433 1.3242004228702757 14.142195418516836
-0.4628895952575847 0.5843386318835411 14.812618033074866
-0.6032477349914869 -0.07078683841723205 15.573882406641355
-0.6970510318754045 -0.575956798624068 16.447645263980164
-0.7311824470738298 -0.8522730260340554 17.42154156664067
-0.6938170947215991 -0.8263873486784281 18.432872770204046
-0.5876261208416647 -0.4900122773958769 19.382158990705154
-0.4316051642146826 0.07070066353531636 20.212261014834496
-0.2430480260219599 0.749400150686688 20.941975097830415
-0.02863373024545802 1.4711395468731256 21.62279948620883
0.21355872154981978 2.178446506488218 22.313550432302844
0.47520879888144035 2.788327127488021 23.033974994358903
0.7912152880195296 3.204714216638705 23.939626286499305
LINES 1 65
64 0 1 2 3 4 5 6 7 8 9 10 11 12 13 14 15 16 17 18 19 20 21 22 23 24 25 26 27 28 29 30 31 32 33 34 35 36 37 38 39 40 41 42 43 44 45 46 47 48 49 50 51 52 53 54 55 56 57 58 59 60 61 62 63
POINT_DATA 64
SCALARS MaximumInscribedSphereRadius float
LOOKUP_TABLE default
1.2400000095367432
1.2400000095367432
1.2400000095367432
1.231760025024414
1.0943700075149536
0.9381070137023926
0.9504489898681641
1.0957399606704712
1.245669960975647
1.2692500352859497
1.321370005607605
1.411120057106018
1.599370002746582
1.3784199953079224
1.1447499990463257
1.2244800329208374
1.2400000095367432
1.2963099479675293
1.4742399454116821
1.66048002243042
1.8188799619674683
1.8299700021743774
1.6615999937057495
1.379729986190796
1.3133399486541748
1.499709963798523
1.5499999523162842
1.6100000143051147
1.814579963684082
1.8599200248718262
1.792739987373352
1.5943700075149536
1.6963599920272827
1.8368200063705444
1.8600000143051147
1.7754700183868408
1.590559959411621
1.7117600440979004
1.9148800373077393
2.1209700107574463
2.1700000762939453
2.053730010986328
1.7122000455856323
1.5603699684143066
1.5835800170898438
1.7407100200653076
1.8660800457000732
1.865440011024475
1.8600000143051147
2.0480101108551025
2.7167599201202393
2.9129600524902344
2.545330047607422
2.148819923400879
2.0686299800872803
2.5732500553131104
2.3737599849700928
2.2730600833892822
2.427229881286621
2.1479101181030273
1.931149959564209
2.066009998321533
1.845039963722229
1.2400000095367432
