# vtk DataFile Version 2.0
Vessel Segment
ASCII
DATASET POLYDATA
POINTS 64 float
-1.8463878138588339 -17.7934613949335 -1.3812980733919344
-1.1544811459306519 -17.244313777830424 -1.9398669148553274
-0.6849408977172252 -16.73427263271157 -2.624863016421787
-0.3960280502100294 -16.164580506719744 -3.4256798295389004
-0.3151402523058167 -15.51078026846757 -4.194245549299373
-0.3413750790877033 -14.718951622635695 -4.827179590977386
-0.37792718700269223 -13.810664075210255 -5.276676348668474
-0.3745779234721184 -12.839693048026778 -5.570133270997182
-0.3355841202459675 -11.843822196091724 -5.759473335914474
-0.3029914431040505 -10.83744370550939 -5.885371650525096
-0.3709584796787061 -9.828781076218023 -5.968841685812487
-0.7648241845439347 -8.90121553617109 -5.996364855260186
-1.6052894981797623 -8.343674233682226 -5.929146869225434
-2.584963924709427 -8.114098237788332 -5.791178671159727
-3.5708516184843746 -7.962098191720125 -5.607378836375181
-4.536611856588243 -7.753756634803862 -5.377440559922519
-5.423065395964979 -7.345596778836946 -5.097831054171488
-5.976189439418707 -6.556104312868342 -4.813330195746263
-5.842469225881295 -5.569697946632337 -4.684093913808005
-5.200551510497629 -4.787744242088436 -4.745537636046965
-4.326139598274222 -4.30031057679912 -4.901198055537042
-3.34829125391486 -4.081282350760948 -5.054802436106339
-2.3372889329731654 -4.046970190466517 -5.128403587505664
-1.326052395977638 -4.088533250389759 -5.061510823146105
-0.3491117669706414 -4.080763216844683 -4.79146120652938
0.4848452817328937 -3.8782710535622185 -4.255979009270717
0.9731567898687009 -3.411503937824411 -3.503839510391483
1.0776677257077767 -2.792924528817172 -2.7075369074762894
0.9406226233068401 -2.128659530515642 -1.953440110728405
0.6771957841475738 -1.4448382148933165 -1.2518742067020514
0.3511551293955536 -0.7378819751920279 -0.6012570384573638
0.0 0.0 0.0
-0.35250019159708684 0.7723334936486498 0.5554963813580591
-0.6922781364120162 1.5732960228523825 1.0773492044291788
-1.0140852114501568 2.385294466685356 1.5937109632516937
-1.3162333633816463 3.1754633116204114 2.153739150114124
-1.591195499333217 3.8786746078303103 2.8311494926842653
-1.8090529079662923 4.365287179796853 3.6918141926779433
-1.9326827142119878 4.539213092627174 4.682080292434303
-1.9700598474876128 4.491291553873495 5.694676715228642
-1.9496680678492437 4.352217090785374 6.6994440171678615
-1.8865952967674922 4.186464445198544 7.698387014766367
-1.7845939410402796 4.0129330859941845 8.692832724045108
-1.6407749380368852 3.8254144155134497 9.679488463174355
-1.4460613705052143 3.6023824915172806 10.649850082610019
-1.1884517466275852 3.3171162851408993 11.588673829289782
-0.860123619511837 2.9537016942099616 12.47697323683426
-0.46906315909796387 2.5205955087714913 13.306838322279699
-0.04135146355400424 2.047315128752922 14.09581739648917
0.3865278382070043 1.5683966540782213 14.881294056245524
0.7766286419734758 1.1171900733071198 15.701971411295835
1.0956190305721616 0.7269613423186063 16.582271998133265
1.3206885114495568 0.436065888257537 17.527489258644717
1.4462777748460682 0.290731374012088 18.52316974258751
1.4943444454179409 0.3533245188862489 19.533955346768877
1.5148682524821095 0.7113300678540078 20.48140531759147
1.5814963172374417 1.4119833048871964 21.2072298600797
1.7434471129274798 2.3327538336544653 21.59727384519228
1.9956889965703668 3.307615629148611 21.717621220306135
2.312122953770094 4.271340232613274 21.69230504646484
2.663874214973974 5.218211163084219 21.613368777493775
3.010513743845477 6.1790527637573085 21.571248029161637
3.2928809198753117 7.118136028554183 21.63498930040604
3.3162935229768116 8.057665888692002 22.08248123614015
LINES 1 65
64 0 1 2 3 4 5 6 7 8 9 10 11 12 13 14 15 16 17 18 19 20 21 22 23 24 25 26 27 28 29 30 31 32 33 34 35 36 37 38 39 40 41 42 43 44 45 46 47 48 49 50 51 52 53 54 55 56 57 58 59 60 61 62 63
POINT_DATA 64
SCALARS MaximumInscribedSphereRadius float
LOOKUP_TABLE default
0.9300000071525574
0.9300000071525574
0.8972449898719788
0.7568150162696838
0.7581499814987183
1.078029990196228
1.2400000095367432
1.246559977531433
1.337030053138733
1.4952600002288818
1.4863699674606323
1.376520037651062
1.2911800146102905
1.4676100015640259
1.7994999885559082
1.8751699924468994
1.8631099462509155
1.8710600137710571
2.11149001121521
2.2505099773406982
1.9652899503707886
1.7818299531936646
1.723870038986206
1.8364100456237793
2.134310007095337
2.602479934692383
2.4262900352478027
2.1919100284576416
2.1700000762939453
2.336289882659912
2.6264400482177734
2.7107200622558594
2.5571200847625732
2.3180899620056152
2.013360023498535
2.063040018081665
2.3627700805664062
2.350830078125
2.3094899654388428
2.435499906539917
2.391309976577759
2.241300106048584
2.2795000076293945
2.4393699169158936
2.662139892578125
2.8695600032806396
2.899519920349121
2.859250068664551
2.830169916152954
2.7816600799560547
2.62185001373291
2.411129951477051
2.1073200702667236
1.9535200595855713
2.09798002243042
2.0779600143432617
1.9449800252914429
2.0501298904418945
2.225130081176758
2.384269952774048
2.4800000190734863
2.4800000190734863
2.7024199962615967
3.0999999046325684
