# vtk DataFile Version 2.0
Vessel Segment
ASCII
DATASET POLYDATA
POINTS 64 float
-10.600335948648306 -15.01736124698926 -2.798073442760891
-9.614153744784069 -14.894271176053005 -2.5956026188221673
-8.62070721832896 -14.80712357244488 -2.40582904374945
-7.6269838789529505 -14.744998999259103 -2.2121279724608
-6.6378295307787045 -14.691180195114773 -1.9923332126554376
-5.661579481761334 -14.626177031461541 -1.7238875930570832
-4.7066633226665315 -14.53483835939913 -1.3933561303856459
-3.7778812410905247 -14.41301482538447 -1.003566459379936
-2.870942627743955 -14.268827656388781 -0.5721744894284659
-1.9749949261053399 -14.115096198225432 -0.1215395566442805
-1.0783655307790627 -13.962429446331905 0.32808882546495416
-0.1718027732113586 -13.811119088735202 0.7578760280190608
0.7509054567209652 -13.640074548767657 1.1434258098174594
1.688660179850096 -13.37505516041292 1.4262279319240552
2.5588258447299315 -12.8541350965547 1.449625302382999
3.198658024126075 -12.114604383604462 1.1795598134856435
3.708175617735122 -11.3233513732016 0.8003297150452401
4.174287817015199 -10.520045949476412 0.3918333456949824
4.606933889662454 -9.702138550971473 -0.024384255616589988
4.987193566875785 -8.857753169358418 -0.4389466191659977
5.277611244748221 -7.973226726942458 -0.8423064920844723
5.421937341834503 -7.041798408232318 -1.2178638809833877
5.359489848673401 -6.0815657937692045 -1.539521969494008
5.074668967967055 -5.138395716076302 -1.7819881959894308
4.615031947792472 -4.247413962460735 -1.937511639236023
4.041992766032813 -3.4131784149711093 -2.0100035588365537
3.399779762835865 -2.6277963127479453 -2.0012315664166156
2.7155260636734706 -1.8847805539517846 -1.905759211713891
2.0061288709502607 -1.1869978925727551 -1.7073379984617147
1.2843093167286201 -0.5574979968828101 -1.3725417056501064
0.5735784945396898 -0.07557070815553425 -0.8323176915164815
0.0 0.0 0.0
-0.17739977373508328 -0.49067773845176405 0.8707055509721793
-0.07658322009253882 -1.186610307793726 1.6015491769447294
0.16805797385631838 -1.9086321671439017 2.2712091346406753
0.514573403256888 -2.582491211815669 2.9458861946149644
0.9484418736022153 -3.146100106853753 3.6694458468787627
1.4531103791376105 -3.5404472335825017 4.456316119503432
1.999514670917651 -3.7407285536922137 5.2874903517459675
2.558712077087571 -3.7761494787184544 6.133335205998731
3.1136390490281585 -3.698468637201129 6.979159187341656
3.652799979476648 -3.5498506050476086 7.825702117493975
4.161933680359113 -3.3553681707811767 8.681490826139875
4.61829275303315 -3.1252558833022683 9.557984055744155
4.988101628571939 -2.8601333616439844 10.464797794845506
5.225853968553588 -2.557063147300709 11.40345501127271
5.2836674895360165 -2.2196213761513874 12.358536832861368
5.133125061144805 -1.8655720739011366 13.297381521619347
4.784661611135501 -1.5232202183521026 14.186644690485661
4.275994417552502 -1.2165794489437691 15.009271043776
3.6496945826203273 -0.958596188700901 15.764641131845591
2.9411038366160636 -0.7532503342581275 16.461167199316282
2.1760394696429435 -0.6001167631272487 17.109712919661035
1.3717258790194438 -0.49768173861455967 17.719630352830684
0.5380653037464765 -0.44667033033266007 18.295702972460443
-0.31945025217756096 -0.4505593270649957 18.83798864567487
-1.1960933245840848 -0.512464238903066 19.345020310588804
-2.085373622268871 -0.6315508002283003 19.818696581661435
-2.978839430239631 -0.7987040101480143 20.269599871442974
-3.8678376362495386 -0.9975693004157627 20.71617163923739
-4.744562807225672 -1.2078929552394941 21.181734940684333
-5.600267453699759 -1.4084153173378366 21.68823771036604
-6.424973879298504 -1.5780894912695589 22.255109003281728
-7.204502838109624 -1.6981314240630105 22.892945466928285
LINES 1 65
64 0 1 2 3 4 5 6 7 8 9 10 11 12 13 14 15 16 17 18 19 20 21 22 23 24 25 26 27 28 29 30 31 32 33 34 35 36 37 38 39 40 41 42 43 44 45 46 47 48 49 50 51 52 53 54 55 56 57 58 59 60 61 62 63
POINT_DATA 64
SCALARS MaximumInscribedSphereRadius float
LOOKUP_TABLE default
1.1160000562667847
1.1803900003433228
1.2488000392913818
1.3598699569702148
1.5019500255584717
1.5377000570297241
1.4456700086593628
1.3398699760437012
1.2142599821090698
1.1171400547027588
1.1160000562667847
1.1212899684906006
1.3413699865341187
1.4998600482940674
1.2669899463653564
1.2401000261306763
1.2400000095367432
1.2400000095367432
1.280060052871704
1.4185400009155273
1.5373799800872803
1.393380045890808
1.2458200454711914
1.3811399936676025
1.5176600217819214
1.6306500434875488
1.7342599630355835
1.7823200225830078
1.6778299808502197
1.561560034751892
1.7016299962997437
1.8092600107192993
1.604099988937378
1.327620029449463
1.0366699695587158
1.2697999477386475
1.768380045890808
1.934209942817688
1.8514900207519531
1.7605299949645996
1.661020040512085
1.605739951133728
1.7349599599838257
1.868280053138733
2.1146700382232666
2.384740114212036
2.276550054550171
1.9811500310897827
1.8600000143051147
1.8600000143051147
1.8600000143051147
1.8596999645233154
1.8378100395202637
1.700719952583313
1.5623799562454224
1.4826699495315552
1.4075599908828735
1.2326600551605225
1.0226000547409058
0.9300000071525574
0.9298539757728577
0.8852130174636841
0.7507320046424866
0.6200000047683716
