# vtk DataFile Version 2.0
Vessel Segment
ASCII
DATASET POLYDATA
POINTS 64 float
-0.29404538512950124 -18.570026882275915 -1.7702465446245523
0.02823873916088153 -18.429118772943124 -2.755293699580595
0.21395676268690908 -18.060123016105184 -3.643467177545047
0.31698542551313574 -17.508285435761877 -4.490728791814036
0.3486655937388247 -16.829097761979966 -5.243817388881085
0.3309036182475159 -16.065418369702634 -5.9110911424766455
0.26896637415227187 -15.248821718237524 -6.509825305154641
0.11604089614649538 -14.41265614250131 -7.0627339301531675
-0.3028168234585787 -13.643798876304247 -7.567242390195585
-1.0905698922484872 -13.111959703933726 -7.912171957388085
-2.028170488893367 -12.760547464573854 -8.073372852419828
-2.9940391511271445 -12.453422545190772 -8.115931758899364
-3.952732804980159 -12.124651839763363 -8.071946703342794
-4.88040473245752 -11.731618062583994 -7.953970605161767
-5.734504859516919 -11.22098048073516 -7.764268513739652
-6.370065851670469 -10.482049892257525 -7.496716704728516
-6.3118858675665965 -9.52703135318523 -7.221820968097943
-5.6436459136901505 -8.78188215037825 -7.056359050734604
-4.801123957419651 -8.2321233979779 -6.930610783347098
-3.90191829371948 -7.786547272050952 -6.782753813358937
-2.9916082377973248 -7.3955985669361635 -6.56473497623078
-2.1132261971343613 -7.021359038768584 -6.222936148250814
-1.3381135371414432 -6.6243621978450475 -5.704790657193108
-0.7570864102741237 -6.164995087797884 -5.013732215073452
-0.3939315283268333 -5.613973904325486 -4.244380635101967
-0.19588271378832825 -4.958008689629717 -3.496957515139875
-0.09767800387567566 -4.205290151918934 -2.824331394710479
-0.05054670400100452 -3.3832867803057383 -2.231789139601037
-0.025973732044729733 -2.523159767434431 -1.6942227615113161
-0.01082136794755272 -1.6529148301274703 -1.1728584986214894
-0.0017649026664147823 -0.8000940731641872 -0.6233819437755713
0.0 0.0 0.0
-0.006980412238688537 0.7000622693609937 0.7335602336369412
-0.021498439570124556 1.2521157362557003 1.5837463501933788
-0.0400623763319521 1.6340419367722574 2.522803762957714
-0.059346725661233134 1.8547199024020742 3.5124450458610723
-0.07699010877232172 1.9360061333727265 4.523313008462148
-0.0892231955552841 1.896849760330292 5.536824798583847
-0.08822124670939036 1.7500022187322295 6.540523351569541
-0.0593602831641043 1.5051786324056482 7.52450281258073
0.01965316349834577 1.1769510805608654 8.481079183127619
0.17343002160360216 0.7925742905293772 9.407169898669554
0.4182492043730972 0.39403547115503806 10.30734772509892
0.7546356873840508 0.031457517079634685 11.192929098501363
1.1656271912519574 -0.24739064188149099 12.07732916796999
1.6168714809088311 -0.40435111713867616 12.971999381182531
2.0629241347483065 -0.41137282985165813 13.882636936865518
2.453862875071198 -0.24262403357878257 14.80272266462878
2.7446834581312713 0.12294391248588415 15.702039519883847
2.9165146602182483 0.6859011482085339 16.526973646952072
2.988108993245382 1.4147796176008947 17.227850628679217
2.996063866650115 2.259376020507234 17.788900900725004
2.9650881640893463 3.173947890912726 18.22638990028682
2.9009739650030975 4.126461690944353 18.569337854463505
2.792577364204065 5.095748427424163 18.848750459629557
2.613947963863887 6.063638096385523 19.0942322654166
2.325951447376426 7.006388702262832 19.3331165648089
1.8843924848854134 7.883435790071783 19.585557540756724
1.265336859537981 8.64015939614297 19.852577355485483
0.4955951977960375 9.248380893185505 20.10813158503975
-0.36463528439878184 9.745249942174711 20.31577738946731
-1.2633435339486776 10.203758099913337 20.446816067518785
-2.122334987423904 10.671594990975024 20.48470968295637
-2.9704476740003725 11.278687418540251 20.395623357859865
LINES 1 65
64 0 1 2 3 4 5 6 7 8 9 10 11 12 13 14 15 16 17 18 19 20 21 22 23 24 25 26 27 28 29 30 31 32 33 34 35 36 37 38 39 40 41 42 43 44 45 46 47 48 49 50 51 52 53 54 55 56 57 58 59 60 61 62 63
POINT_DATA 64
SCALARS MaximumInscribedSphereRadius float
LOOKUP_TABLE default
1.2400000095367432
1.2400000095367432
1.268049955368042
1.3536800146102905
1.5107699632644653
1.7322800159454346
1.4711899757385254
1.3862099647521973
1.5499999523162842
1.5499999523162842
1.5499999523162842
1.5499999523162842
1.592919945716858
2.037519931793213
2.4288198947906494
2.4800000190734863
2.307849884033203
2.6707799434661865
2.9975900650024414
2.636539936065674
2.377120018005371
2.2708499431610107
2.572429895401001
2.5591700077056885
2.387269973754883
2.9026100635528564
2.845789909362793
2.4933600425720215
2.2867000102996826
2.1725399494171143
2.1700000762939453
2.2976999282836914
2.411210060119629
2.1026101112365723
2.0087499618530273
2.3891799449920654
2.236759901046753
1.9342900514602661
1.9817899465560913
2.0130999088287354
1.8390799760818481
2.0089099407196045
2.4150900840759277
2.4879701137542725
2.4170000553131104
2.2245700359344482
2.1700000762939453
2.2844600677490234
2.651400089263916
2.733069896697998
2.593709945678711
2.3436501026153564
2.0464799404144287
1.7132500410079956
2.0315699577331543
2.7135701179504395
2.9668099880218506
3.1650500297546387
3.3521599769592285
2.8092799186706543
2.128880023956299
1.7132500410079956
1.5499999523162842
1.5499999523162842
