# vtk DataFile Version 2.0
Vessel Segment
ASCII
DATASET POLYDATA
POINTS 64 float
2.8993287819415055 -12.478500005583786 -4.20193819792183
2.4081587233524258 -12.393262780078313 -5.122011873783977
1.897136709235086 -11.807894087313299 -5.7069840120553925
1.5117058893266508 -10.88043017959058 -5.828935349293358
1.3139876682980507 -9.903408281429789 -5.6432879358954064
1.2261875735184944 -8.93209837565668 -5.363556800371708
1.188096261195283 -7.958084030633609 -5.08212314507061
1.1441405122385497 -6.97264210976387 -4.844895530402213
1.0182199982249684 -5.980014995383413 -4.681292841523768
0.6620410899638443 -5.033197687148566 -4.609687131259911
-0.13951706715775822 -4.429428551402386 -4.585708627125434
-1.1445790359045802 -4.434288898278985 -4.476175956618377
-2.071250831267436 -4.776186397801276 -4.251618007301255
-2.8954747098409186 -5.275977163684498 -3.936115845035185
-3.6236804795623545 -5.864271800014448 -3.5456516642122105
-4.267027527241875 -6.499951585235492 -3.08646978120057
-4.837494095886059 -7.13630266061628 -2.539430982192744
-5.325539896487615 -7.66580794282565 -1.8241048997308789
-5.522417012448848 -7.606215689124288 -0.8751426414269555
-5.271275216670544 -6.815322644376614 -0.2872450286262982
-4.888067429667496 -5.8868074589059445 -0.16468783876110615
-4.490043783420088 -4.987883157806117 -0.4069343543144841
-4.12905153026995 -4.20208910637232 -0.935255761379726
-3.8120092834847634 -3.5307981398499666 -1.626486354907444
-3.5013972105646234 -2.906459829892699 -2.363566954878787
-3.1269346276745056 -2.2438519380020674 -3.03348195024476
-2.586946512822781 -1.4988806089768796 -3.454238180304991
-1.8599386625154788 -0.8100977769727224 -3.3532757900755326
-1.1614739662421885 -0.3931125792438156 -2.7523592939290444
-0.6264660174659583 -0.19593576401922347 -1.9144998578908836
-0.24787636056759932 -0.09472492770412434 -0.9790498420938885
0.0 0.0 0.0
0.11362344114527226 0.15945357375409264 0.9948144239674835
0.011263823260782872 0.45046264458706586 1.959361640193371
-0.4915285681049933 0.8772289904603633 2.7209127625423197
-1.3323463163382994 1.256979469264796 3.142018651838865
-2.2667436325487382 1.522428675292896 3.4343211903171196
-3.1921290864149348 1.7362594193023406 3.7904063651202033
-4.018213314443222 1.9785759609703177 4.325253798117842
-4.590561872305337 2.319592878367152 5.086089452721987
-4.7859998647687325 2.7452950639592864 5.983192758926736
-4.662127949564679 3.1741668097932365 6.893071453257135
-4.336300841988497 3.548482713523889 7.7774332568053905
-3.8785433966730216 3.8385197784854825 8.634774188769809
-3.317421228317961 4.0234470728654435 9.459074929678163
-2.6580975051870275 4.0879110729600745 10.226890300573594
-1.9043939636724443 4.031107690111816 10.902929426255168
-1.0815562604681968 3.8718109551740896 11.474205328906251
-0.23263982886695023 3.6340891648745517 11.976250807890445
0.6016333925514031 3.332990193720062 12.468759034922355
1.3946636290318477 2.982409361496946 12.995490118292183
2.143123818972303 2.6103110648300945 13.570528984602884
2.860370227872339 2.256797400937883 14.194899528428884
3.5496621675197617 1.961021691111603 14.877894488527192
4.190806085293473 1.7535880641928803 15.635898609405771
4.7449513962315875 1.6551345205551364 16.479396169069933
5.165056883005128 1.683280952817517 17.401651408456537
5.398579339346933 1.8677843096192137 18.370297523733736
5.391391031255188 2.259115543260996 19.303945081799608
5.141464083062027 2.880176555194904 20.0625621544714
4.756833519780296 3.6742027906137698 20.56046822183831
4.387560150706836 4.583613946435214 20.832212630644058
4.160404717092916 5.532244235913651 20.94650267622283
4.387081430261862 6.54927137376268 20.968348230501363
LINES 1 65
64 0 1 2 3 4 5 6 7 8 9 10 11 12 13 14 15 16 17 18 19 20 21 22 23 24 25 26 27 28 29 30 31 32 33 34 35 36 37 38 39 40 41 42 43 44 45 46 47 48 49 50 51 52 53 54 55 56 57 58 59 60 61 62 63
POINT_DATA 64
SCALARS MaximumInscribedSphereRadius float
LOOKUP_TABLE default
0.9796000123023987
1.3451600074768066
1.3640199899673462
1.2602299451828003
1.3181899785995483
1.4850399494171143
1.3454999923706055
1.0714000463485718
1.4679700136184692
1.6267399787902832
1.429960012435913
1.513800024986267
1.4302400350570679
1.3372000455856323
1.2609399557113647
1.2400000095367432
1.3484200239181519
1.760200023651123
1.8698400259017944
2.1592800617218018
1.818869948387146
1.830739974975586
2.348140001296997
2.3153998851776123
2.0821900367736816
1.6822400093078613
1.5499999523162842
1.6962499618530273
1.768149971961975
1.6000499725341797
1.7430599927902222
1.8660000562667847
1.8804700374603271
1.8691799640655518
2.159320116043091
2.2761099338531494
1.882949948310852
1.4833099842071533
1.4242000579833984
1.8375699520111084
2.076390027999878
2.1700000762939453
2.139080047607422
1.9783799648284912
1.9379299879074097
2.1409499645233154
2.350029945373535
2.3991200923919678
2.280410051345825
2.5453200340270996
2.623389959335327
2.272979974746704
2.1700000762939453
2.2407500743865967
2.416749954223633
2.3773300647735596
2.3802199363708496
2.7274999618530273
2.8204801082611084
2.605289936065674
2.235450029373169
2.3593599796295166
2.472450017929077
2.4800000190734863
