# vtk DataFile Version 2.0
Vessel Segment
ASCII
DATASET POLYDATA
POINTS 64 float
-2.945582198204439 -17.555940194871603 -2.79116565687757
-2.369565878731851 -17.20649846059002 -3.5907538922405964
-1.902295795010832 -16.746598186220105 -4.310687922919394
-1.481021048411342 -16.1115425492606 -4.996734121910425
-1.1440112608796462 -15.31768167315026 -5.525966848602582
-0.8568677798429245 -14.406441541466975 -5.866180655055547
-0.5850188438584357 -13.444779743491953 -6.040224776384487
-0.3040332701073799 -12.473030028881414 -6.118069130235521
-0.005127100639923171 -11.504590681565698 -6.165383881672373
0.309732683461885 -10.542524409583638 -6.23282789606565
0.6272095318317201 -9.587760502716005 -6.362589572557975
0.9111054782333602 -8.641583574204903 -6.598450562269634
0.9154955597260591 -7.715926928746303 -7.011461865659229
0.19863334479036268 -7.095521380227767 -7.253996947319689
-0.718606571087767 -6.654699092809515 -7.156073809011761
-1.5875544673792867 -6.15664647041982 -6.9963912190637245
-2.4484874514174524 -5.6421839997254 -6.844069055212792
-3.3400428715744193 -5.181342518572076 -6.695033825095956
-4.275385134192738 -4.839184565906108 -6.504130571307513
-5.219964376508034 -4.6394078428628545 -6.193807489390097
-6.068126043359309 -4.56135998150228 -5.643741386549747
-6.497443873586163 -4.516421507916595 -4.740685299346787
-6.181326648285869 -4.397130218639181 -3.7908768747748693
-5.4521830885955875 -4.222849527946431 -3.106031162017321
-4.594964950022738 -4.020243885191153 -2.6034131733656336
-3.693726349451572 -3.7813354382357547 -2.2035491363958664
-2.7893638198294273 -3.4807138102871638 -1.8556183750784614
-1.9214455046417194 -3.074499450337527 -1.5229743212084101
-1.1547982645348 -2.507621189741277 -1.1780501565413777
-0.5765295429970378 -1.7615801359332433 -0.8089387395082247
-0.21270913327481916 -0.8995599803142578 -0.4178749582270139
0.0 0.0 0.0
0.13491892656464577 0.8941274959214157 0.4600782364535967
0.23710649927627336 1.758784147923037 0.9808777864154828
0.32359316286709083 2.5729101257131113 1.5798778676293594
0.38685517811845116 3.3131158052343834 2.2705717399342022
0.40127251061884733 3.9508419014304064 3.059114269184497
0.33765010369059734 4.451805031096421 3.938596586232764
0.1850965333959507 4.783495558575007 4.884588947013851
-0.036362420211637936 4.931137865052232 5.863184191312602
-0.2857886067195287 4.9018539690282745 6.8458220436628725
-0.5185218036885616 4.713355047463332 7.814891588250123
-0.6972054007853088 4.385213563461623 8.757895349786661
-0.7963275030958201 3.9410673306807036 9.664421120451424
-0.8076256012809497 3.4138521905494086 10.531020742428927
-0.7420902277333911 2.845274408588652 11.368701305899382
-0.6240469054497912 2.282738664531818 12.204820372477274
-0.48214049533507364 1.7777079832659575 13.07310904933964
-0.33843944760462497 1.381667250951947 13.995795003611013
-0.1970348069029784 1.1295069660817312 14.968003623430446
-0.0348795241418593 1.0260560389352855 15.963937905072013
0.1910978310934889 1.0620105682901793 16.95209140356801
0.5244066038115897 1.243154833116159 17.892505639867426
0.9734511319504956 1.5983525873991555 18.72910198384961
1.4736189720131763 2.153997166520943 19.41372103099286
1.915780859336498 2.8966479465988932 19.94364088691705
2.22569983014615 3.7690382287687134 20.357428927662266
2.3977049723827375 4.706161485846651 20.705480230702232
2.4679934141152335 5.664965769286243 21.029755737679718
2.4891097458636824 6.624499433532392 21.359518926491464
2.518813450855701 7.5735086496458415 21.711502169595118
2.633827366231314 8.51525328023359 22.099823159267604
2.869739048619779 9.376278795439521 22.492644095846334
3.364131828273286 10.193039508244054 22.916788460237818
LINES 1 65
64 0 1 2 3 4 5 6 7 8 9 10 11 12 13 14 15 16 17 18 19 20 21 22 23 24 25 26 27 28 29 30 31 32 33 34 35 36 37 38 39 40 41 42 43 44 45 46 47 48 49 50 51 52 53 54 55 56 57 58 59 60 61 62 63
POINT_DATA 64
SCALARS MaximumInscribedSphereRadius float
LOOKUP_TABLE default
1.5499999523162842
1.411769986152649
1.2563199996948242
1.0838099718093872
0.9951450228691101
1.144029974937439
1.1550899744033813
1.0049899816513062
1.0402100086212158
1.2067999839782715
1.3834500312805176
1.4915499687194824
1.5843000411987305
1.6372599601745605
1.0257799625396729
1.2021100521087646
1.4973000288009644
1.8395899534225464
1.8013700246810913
1.592769980430603
1.85725998878479
1.9878300428390503
2.061880111694336
2.1576199531555176
2.1699399948120117
2.107569932937622
1.9401700496673584
1.764840006828308
1.5822299718856812
1.7135299444198608
1.8216899633407593
1.6476000547409058
1.633139967918396
1.7852599620819092
1.6750799417495728
1.395400047302246
1.5011299848556519
1.7268799543380737
1.4996999502182007
1.2625700235366821
1.3455100059509277
1.4300299882888794
1.5176299810409546
1.4410799741744995
1.3219499588012695
1.7732000350952148
2.2928099632263184
2.309309959411621
2.229259967803955
2.394740104675293
2.3933300971984863
2.1660399436950684
1.819309949874878
1.634060025215149
1.8425400257110596
2.190959930419922
2.2580199241638184
1.8195899724960327
1.720729947090149
2.0385398864746094
2.18681001663208
2.1740798950195312
2.1700000762939453
2.1700000762939453
