# vtk DataFile Version 2.0
Vessel Segment
ASCII
DATASET POLYDATA
POINTS 64 float
1.8419663364216148 -11.8273434176932 -2.306136012958292
2.2236164953835913 -11.348139775568493 -3.129971331300849
2.6325581138754766 -10.661717922943485 -3.732599941658007
3.005307075334093 -9.82689156554518 -4.166162432353447
3.262949808856664 -8.882977738876368 -4.427412264207343
3.2993838958520545 -7.8746530862653445 -4.495687290077532
3.017607005348884 -6.913718967786936 -4.362626052784613
2.4562488587420606 -6.113524480906149 -4.0991302113252335
1.7289512995219467 -5.471487939044056 -3.8051846435473564
0.9004850237368628 -4.948964333696495 -3.5427321715037157
-0.004952910273594612 -4.540293204929107 -3.3396634359454507
-0.9740680726677223 -4.28115587918402 -3.1945828575153774
-1.9780324807338217 -4.237729316201789 -3.067627155115157
-2.9468223083890512 -4.460471349239343 -2.8772205838551184
-3.801181770627069 -4.899618521923246 -2.555973506854604
-4.529081775749363 -5.437486836514858 -2.099225414376369
-5.160775502744882 -5.986425136951165 -1.5264939846426284
-5.713047713725131 -6.488210552103203 -0.8400589925127409
-6.158990798205533 -6.857792985142297 -0.010433781245016798
-6.325439905397005 -6.821654692657917 0.9707721444773778
-6.011842528310175 -6.1388937089923505 1.6241536496340354
-5.543745248897499 -5.265257117531282 1.8270591503628313
-5.069077004551617 -4.369459984267212 1.8103415276477792
-4.610929575121414 -3.4770648766485857 1.6606421859249652
-4.169400492169437 -2.6064554315310176 1.386178303043562
-3.7336254379884197 -1.81844233198753 0.9231388252966048
-3.2980414603252077 -1.25460551160556 0.20666438210030091
-2.841168265502255 -0.9576141147819177 -0.6477009457672225
-2.214868874378193 -0.7571051641118453 -1.4149825068997013
-1.2837143741602088 -0.46446477308159645 -1.471334957898863
-0.5487938837501479 -0.19539406128974957 -0.8297850991549283
0.0 0.0 0.0
0.4330975163691101 0.1138687949939348 0.9097659824478846
0.7587122400707894 0.12021831323502678 1.869783154543133
0.9229657306569069 -0.02642126742169323 2.8580800529045924
0.7753908621423945 -0.36259076120809863 3.797493330579017
0.19616233823349477 -0.7636435707785449 4.518253215818641
-0.6659946883666841 -0.9826709663075015 4.998797091905879
-1.606058614242731 -0.8987123333646884 5.363062830477154
-2.467806440674233 -0.505961813420538 5.719165520880051
-3.1294887817181953 0.13406111988323896 6.138491030424327
-3.509731864821552 0.912741842577464 6.660407399457059
-3.580197150705791 1.700874201057069 7.290868729437993
-3.362059255605805 2.38358095650561 8.005233029043195
-2.913342343165272 2.8780185188933376 8.766066193765917
-2.3094786291229683 3.1394709674511585 9.535751041771606
-1.617980250417064 3.1682689623054103 10.2756931866901
-0.8836669459027306 3.004594414004855 10.9550860944265
-0.14095176711710736 2.6975564353091936 11.573638557570305
0.5817640076534217 2.294366284080089 12.160332154211275
1.2697796550838603 1.8455282081518023 12.755674151208984
1.925046293434324 1.4027407278745578 13.391132990292657
2.5509123093411143 1.0007341300507462 14.080843982494393
3.141657840703506 0.6489731520957072 14.826710231585956
3.686442937160352 0.3430476796848148 15.62588441380599
4.174614969146396 0.08135447418849549 16.475646779043906
4.594081513895331 -0.1163296763689901 17.377625441225685
4.920115841826531 -0.1873869884247332 18.334440090240097
5.089684673124149 0.012975840836823896 19.30940103452086
5.02074204954337 0.6278166424025989 20.102264646195593
4.778885812719443 1.4957669452289446 20.56196131817341
4.475759025285499 2.430974654339712 20.80229203476877
4.160012862855639 3.372011455352979 20.930244836317335
3.839722204415991 4.347900854101809 21.010430632116407
LINES 1 65
64 0 1 2 3 4 5 6 7 8 9 10 11 12 13 14 15 16 17 18 19 20 21 22 23 24 25 26 27 28 29 30 31 32 33 34 35 36 37 38 39 40 41 42 43 44 45 46 47 48 49 50 51 52 53 54 55 56 57 58 59 60 61 62 63
POINT_DATA 64
SCALARS MaximumInscribedSphereRadius float
LOOKUP_TABLE default
0.9796000123023987
0.9416279792785645
1.1099599599838257
1.1821999549865723
1.0171200037002563
1.3809200525283813
0.8961939811706543
1.1773699522018433
1.438599944114685
1.2606300115585327
1.2854199409484863
1.5794600248336792
1.3645399808883667
1.136389970779419
1.5475599765777588
1.562809944152832
1.9291199445724487
2.2791099548339844
2.295229911804199
1.7074400186538696
1.7594799995422363
1.6101399660110474
1.8459199666976929
2.0785999298095703
2.0148301124572754
1.985610008239746
2.1690900325775146
2.245450019836426
2.4799599647521973
2.255810022354126
1.9645700454711914
1.7716599702835083
1.573330044746399
1.7824699878692627
2.175450086593628
2.4986000061035156
2.0967800617218018
1.3261300325393677
1.3940399885177612
1.5196499824523926
1.9195400476455688
1.943269968032837
1.5750700235366821
1.6214699745178223
2.029670000076294
1.9573299884796143
2.048229932785034
2.0838499069213867
1.8621900081634521
1.691140055656433
2.356450080871582
2.0379700660705566
2.0104598999023438
2.3276500701904297
2.6718599796295166
2.302870035171509
2.443969964981079
2.887809991836548
2.7350499629974365
2.156480073928833
1.892930030822754
2.4375898838043213
2.884999990463257
3.0999999046325684
