# vtk DataFile Version 2.0
Vessel Segment
ASCII
DATASET POLYDATA
POINTS 64 float
-0.7671582139417793 -14.158371634775369 -4.400107152414344
-0.23358725248906292 -13.818819755982082 -5.226047990584291
0.24868277047918455 -13.328251574026517 -5.922918711204272
0.6967628006471369 -12.641915440635891 -6.53941760325364
1.0268395578586007 -11.793656052776468 -6.980018940375829
1.212506774735099 -10.833208403895599 -7.248644439501245
1.243423093363064 -9.826074011697862 -7.36395225654852
1.1339574055865038 -8.817629197771291 -7.366692886294558
0.9015702614241642 -7.832766778976329 -7.295023078074816
0.5562156942006261 -6.886018504013406 -7.178707446145619
0.09457572293934045 -5.993533866228859 -7.039185817768936
-0.5021488420859441 -5.186819085732478 -6.890868937824249
-1.2606673403795374 -4.530992221680997 -6.739700951262586
-2.1707163733566714 -4.116199540561045 -6.5754538698446625
-3.1523556794663206 -3.964292317300579 -6.371617154921119
-4.129972394588302 -3.9907054448139685 -6.102171279762419
-5.076713969570641 -4.089182567413355 -5.751081843073489
-5.98644183552159 -4.172612291767907 -5.310078895459863
-6.848059707366543 -4.163525642427249 -4.774118515199343
-7.617273352146488 -3.9729123964309014 -4.144021916286744
-8.1681846304889 -3.48781226483685 -3.443706069885646
-8.105521291290952 -2.672223270429114 -2.8604347522446303
-7.369312793379696 -1.998193483388557 -2.68618147861856
-6.43919969294822 -1.6012474720852214 -2.7272596766166286
-5.456557868839475 -1.3656103255587988 -2.8224028521399367
-4.4540042275813905 -1.2299303245168118 -2.897012999657548
-3.4425480917813305 -1.1516712329476615 -2.891167309991703
-2.4424820227791777 -1.0897217829707266 -2.7340829400585314
-1.512965210545988 -0.9869904208682857 -2.342912983596537
-0.7663760327966747 -0.7790657664351324 -1.6901867023755661
-0.2734887734558692 -0.4429208889235507 -0.8704743146982479
0.0 0.0 0.0
0.1227861981547655 0.5214290644482565 0.8613892883402623
0.14975571565609086 1.0997821207219372 1.6945388383367148
0.11807650040847806 1.7172201020999396 2.4989610327352185
0.05176602717167642 2.3591133148867582 3.281936852414207
-0.03429391882153263 3.011401103691844 4.054238755413553
-0.13092586529286054 3.660474754410884 4.8280810664991805
-0.23275847427881458 4.292728710789659 5.615034239778806
-0.3363125760104535 4.895552507532283 6.424533687596669
-0.4371774137529087 5.456739145001341 7.263675365805577
-0.527714661705921 5.963854235017752 8.137725226967948
-0.5960405583925046 6.403797916679681 9.04937095007422
-0.6268621381735847 6.76377072217595 9.997372852487437
-0.6024803310925152 7.0331701549591035 10.975091952336566
-0.5052883659680426 7.205349973155073 11.970067090054581
-0.3217389754106312 7.276901969237715 12.96519403526665
-0.04916739764522441 7.245487777339621 13.941790921744719
0.3006690947293359 7.1098550365165005 14.884334382553474
0.7041798708503166 6.871435573032245 15.784074775239008
1.1316308137748716 6.536972691601235 16.641145026088424
1.554521367108449 6.119435502715246 17.463446969225252
1.9495898987955118 5.6386940347829375 18.264785449854497
2.3018013147702203 5.121370645554551 19.063326562354803
2.6036395949656157 4.6008752372219215 19.880229202182765
2.851460290846826 4.115942553914809 20.736219367083763
3.0431111831825297 3.7094595290801435 21.6456886806087
3.1803180463410525 3.423857070657739 22.609295737535323
3.275284100444384 3.289214197004247 23.610063931626673
3.3556321397524824 3.3167892229048515 24.621316234766226
3.4566558399062886 3.5039815330321726 25.610542242412425
3.6307404796500062 3.865887951655906 26.553901543286855
3.8877379463016264 4.352978306524871 27.364649825773043
4.302741166004475 5.016591546995251 28.04934081807715
LINES 1 65
64 0 1 2 3 4 5 6 7 8 9 10 11 12 13 14 15 16 17 18 19 20 21 22 23 24 25 26 27 28 29 30 31 32 33 34 35 36 37 38 39 40 41 42 43 44 45 46 47 48 49 50 51 52 53 54 55 56 57 58 59 60 61 62 63
POINT_DATA 64
SCALARS MaximumInscribedSphereRadius float
LOOKUP_TABLE default
0.6200000047683716
0.6200000047683716
0.6410340070724487
0.7559890151023865
0.9552739858627319
1.2489500045776367
1.540179967880249
1.6870900392532349
1.7731200456619263
1.5747699737548828
1.3853299617767334
1.349410057067871
1.4006099700927734
1.4855999946594238
1.4968700408935547
1.3397200107574463
1.3045599460601807
1.4589799642562866
1.6183700561523438
1.7929600477218628
1.4260599613189697
1.01419997215271
1.261780023574829
1.5932799577713013
1.7751599550247192
1.6844199895858765
1.5706599950790405
1.5499999523162842
1.4978300333023071
1.3541500568389893
1.5591100454330444
1.9884400367736816
2.053339958190918
1.90461003780365
1.8613500595092773
1.8577500581741333
1.772279977798462
1.619979977607727
1.4648499488830566
1.3079299926757812
1.4290399551391602
1.7339400053024292
1.6718599796295166
1.3854199647903442
1.3386000394821167
1.4901399612426758
1.590000033378601
1.6505099534988403
1.7477400302886963
1.8573700189590454
1.8752100467681885
1.8826500177383423
1.9819300174713135
2.1242599487304688
2.1799800395965576
2.1927199363708496
2.1947999000549316
2.1935200691223145
2.182770013809204
2.172719955444336
2.1700000762939453
2.105570077896118
1.8480199575424194
1.5499999523162842
