# vtk DataFile Version 2.0
Vessel Segment
ASCII
DATASET POLYDATA
POINTS 64 float
-9.123817488994256 -17.816417491242923 -4.5041783777575946
-8.252141651620786 -17.976712581050307 -4.463902055669454
-7.063680768192423 -18.113123992892532 -4.339902660477278
-6.148691307622537 -18.06711022762672 -4.105859921142309
-5.208266915829092 -17.901478776491256 -3.7314238502148056
-4.3788004442136526 -17.612653985020657 -3.2138831122796674
-3.674354912253398 -17.250710168645146 -2.582071836354201
-3.0547883219703427 -16.870456022582648 -1.8726493658103
-2.48459525123561 -16.503822984916525 -1.1177299362382014
-1.9255051038987356 -16.16299305508213 -0.3427726205732443
-1.350081041516297 -15.842867550432656 0.4292935786226599
-0.7397099382584744 -15.525006156425448 1.1749371108164364
-0.08193004230266644 -15.17960650670224 1.866328719649146
0.6270620382513113 -14.765130198866276 2.4649134634390197
1.3667442928663833 -14.23736140368809 2.917939147572609
2.090360510556109 -13.574515779479102 3.1842807692324078
2.7384903506823877 -12.796677505085167 3.2648794183890826
3.284808915078454 -11.941994119926298 3.206172778388151
3.7271755716129364 -11.040148722272756 3.0593628630104557
4.074029271924312 -10.106743928954595 2.8627719177853344
4.329466689450388 -9.150038612155596 2.64006118114552
4.491197664360722 -8.175977562890832 2.4051314905755468
4.549628644776559 -7.19133866165736 2.165570180164282
4.489934583204458 -6.2071258145927635 1.9239120145668565
4.296064482217074 -5.240874837289187 1.6794532838059435
3.9616196716733105 -4.315175643658888 1.4305354631266116
3.4945884290199642 -3.4501327568687077 1.1763585867391912
2.917851009218217 -2.6557939897733505 0.9183094568126355
2.2589780244357893 -1.927651337471264 0.6612849177374323
1.5427410956268843 -1.2533040235030966 0.4126717241768113
0.7865334623153036 -0.616321387988529 0.18512533619550503
0.0 0.0 0.0
-0.801331602584341 0.6031648018742954 -0.11745465952906087
-1.6226727743431937 1.2136961668171715 -0.06994508403499267
-2.3881241290293427 1.7892082892305357 0.3181286399686759
-2.769946440312544 2.0898276508271754 1.1800444941117794
-2.779081479708705 2.1066207665607686 2.2251713586159285
-2.592524593529752 1.9572829626784323 3.2063689920273353
-2.333146613038944 1.733776041251645 4.161450628604457
-2.035890339334452 1.4598986860402237 5.092935423411267
-1.7184686004774599 1.1463137249073005 6.003941836838805
-1.3945437587354568 0.8016754501822968 6.901659559406663
-1.0703565552076482 0.43112247893808986 7.788827885527976
-0.7495007954638628 0.04118933741296402 8.668837904326313
-0.433539730360284 -0.3595961692781605 9.545753162500612
-0.12263023426281595 -0.7607498518609573 10.424290064733238
0.18330643759157386 -1.1498904800165852 11.310004595191227
0.48319993750259305 -1.5146447719445293 12.20804697673045
0.7738785358649168 -1.8436860134009474 13.122818732864822
1.0491177824707911 -2.128788799397379 14.056963347394616
1.2995343036367513 -2.365913424652791 15.011308646662815
1.5143635258149644 -2.556410104981817 15.984575887853538
1.6837511777953373 -2.706644801788841 16.97370741405392
1.8023891463307529 -2.826842405397745 17.974257470852816
1.8716139871046993 -2.927651940032926 18.98163388985405
1.8991547739774985 -3.016265044742955 19.991941233230516
1.8964481023638364 -3.093279389445086 21.00360108613803
1.874367142764933 -3.1503495885098007 22.017474136484598
1.8414007879485734 -3.175789385504616 23.02770790711735
1.8002478635824328 -3.139635088925725 24.045856296770364
1.7521982495733113 -3.0186623555489307 25.06214045271346
1.7031574790281991 -2.835096978463533 25.988178003532347
1.6236714069740674 -2.381555765485202 27.097132758215327
1.5586814255047818 -1.9662161326567351 27.879308136860306
LINES 1 65
64 0 1 2 3 4 5 6 7 8 9 10 11 12 13 14 15 16 17 18 19 20 21 22 23 24 25 26 27 28 29 30 31 32 33 34 35 36 37 38 39 40 41 42 43 44 45 46 47 48 49 50 51 52 53 54 55 56 57 58 59 60 61 62 63
POINT_DATA 64
SCALARS MaximumInscribedSphereRadius float
LOOKUP_TABLE default
0.6200000047683716
0.7202749848365784
0.833187997341156
1.0068000555038452
1.332110047340393
1.500480055809021
1.4764699935913086
1.3196500539779663
1.2998499870300293
1.3382500410079956
1.4891300201416016
1.7706400156021118
1.8343700170516968
1.7169400453567505
1.6017800569534302
1.706779956817627
1.8476500511169434
1.9990400075912476
2.093600034713745
1.9246699810028076
1.692330002784729
1.6504199504852295
1.8519500494003296
1.9879000186920166
1.9049500226974487
1.754390001296997
1.6473699808120728
1.6099599599838257
1.5843900442123413
1.5668599605560303
1.5547000169754028
1.643090009689331
1.7548999786376953
1.8583699464797974
1.8439600467681885
1.5562299489974976
1.5074599981307983
1.8660099506378174
2.044569969177246
2.011389970779419
1.9371800422668457
1.975659966468811
2.1098999977111816
2.22898006439209
2.3183999061584473
2.3505799770355225
2.129149913787842
1.929900050163269
1.8289899826049805
1.8512799739837646
2.1350600719451904
2.4763500690460205
2.7287399768829346
2.6093900203704834
2.473210096359253
2.3320400714874268
2.1875200271606445
2.0500500202178955
1.9615199565887451
1.9435399770736694
2.0810298919677734
2.002000093460083
1.8086700439453125
1.5499999523162842
