# vtk DataFile Version 2.0
Vessel Segment
ASCII
DATASET POLYDATA
POINTS 64 float
-4.636786033887809 -17.709965982100005 -1.5657117305040864
-4.01004612031591 -17.515776885958616 -2.379769713412365
-3.3344346513101843 -17.289473721618233 -3.0435360893055208
-2.5800345529039808 -16.98755598354631 -3.670237994323102
-1.8194828141141473 -16.598987147418676 -4.213612936623177
-1.0813478385522108 -16.100947582288153 -4.699926878298674
-0.40895365964193225 -15.48542057986873 -5.144789095873579
0.15065704553689707 -14.758370560546325 -5.577119652639389
0.54141034361604 -13.941706023983626 -6.033859050098376
0.7001409621529252 -13.080931744634384 -6.545087508387193
0.5843083573699278 -12.238640389961205 -7.096776892930819
0.2102198948012243 -11.45801100792333 -7.624479040419965
-0.36074189521672634 -10.738402286395251 -8.053878732496278
-1.0580605505282534 -10.057149930573589 -8.333363174587507
-1.820081473023763 -9.39813982143261 -8.450755231443816
-2.6018804556694843 -8.752364331835313 -8.423152967262554
-3.375264326658117 -8.111835544620801 -8.279120699945002
-4.121014527207365 -7.4664330770506995 -8.041633079282125
-4.817346449561388 -6.802142901682551 -7.720035549004925
-5.416866681125033 -6.0991830398638145 -7.302817856935134
-5.773031464483851 -5.338843216031668 -6.7378982289248714
-5.531429151371121 -4.674950143051735 -6.027200316542948
-4.815476518537086 -4.334447746082682 -5.388591160531328
-3.9960748345553534 -4.160777361760914 -4.8180201996109915
-3.1674328304944814 -4.027032780709195 -4.24778296126373
-2.3734052064659727 -3.8544068174845485 -3.640401654811328
-1.657995228642774 -3.5692854817158075 -2.9804765450561264
-1.073897945790855 -3.111399197398426 -2.290046868580731
-0.6477346002366082 -2.476222261597474 -1.6245029338948438
-0.3543161783791657 -1.714009399607614 -1.0231111736873446
-0.15006377558374875 -0.8769027900870037 -0.4875469094568051
0.0 0.0 0.0
0.12051974100151654 0.8942047834099003 0.464130575156378
0.2297541640616172 1.788870796724433 0.9298569424055518
0.3409938434078598 2.670627021542419 1.4192703600640635
0.4610237317987555 3.5279097796325396 1.9485749333808424
0.5884824422805591 4.3505886910303575 2.528325903257086
0.7149900805402881 5.128390496501002 3.1672971349445977
0.8274934839514165 5.84743605784149 3.8741176594245297
0.9106380615795833 6.486999234552413 4.657059610665947
0.9496235625873267 7.0194713879622785 5.519517578796021
0.935434437085223 7.413535442015288 6.4538753597022005
0.8683236971792706 7.645237723726836 7.438954288468558
0.7581804496817373 7.706104729808422 8.445380312142458
0.6200232339944393 7.604051529484769 9.444966419116497
0.4702318452679699 7.35773030184257 10.417503111818334
0.32250904030658695 6.989459096589425 11.351098276566766
0.1869496603660072 6.521405223919186 12.240896679308053
0.06965750576708549 5.975815271039555 13.088135309878668
-0.026225023189795832 5.375682609530409 13.900527921099336
-0.09986319183105673 4.74640004292903 14.692990086056291
-0.1507924408322844 4.118233659889006 15.488131122050902
-0.17718855231237823 3.5294025080809464 16.313900686491923
-0.1734002872577119 3.0282736490380806 17.19578940236986
-0.12849679409693343 2.668280274767081 18.14284417143869
-0.029597231012323703 2.4957381279619364 19.13714398356272
0.1309433030589424 2.528550690634625 20.137823519451608
0.34894451223661865 2.753991548272143 21.102235064556012
0.6091890392552398 3.15058863706124 21.998654778614966
0.8893644465242488 3.702572280965287 22.8021528705538
1.1623796398604573 4.39696796103187 23.486624316058766
1.397016128389297 5.239469574289639 24.019795815239696
1.5590800855298206 6.137181593251968 24.363586216168777
1.623537532706162 7.171529405981062 24.498185550166163
LINES 1 65
64 0 1 2 3 4 5 6 7 8 9 10 11 12 13 14 15 16 17 18 19 20 21 22 23 24 25 26 27 28 29 30 31 32 33 34 35 36 37 38 39 40 41 42 43 44 45 46 47 48 49 50 51 52 53 54 55 56 57 58 59 60 61 62 63
POINT_DATA 64
SCALARS MaximumInscribedSphereRadius float
LOOKUP_TABLE default
1.2400000095367432
1.5851199626922607
1.7591300010681152
1.5151100158691406
1.3536299467086792
1.4695500135421753
1.5027300119400024
1.375190019607544
1.1093900203704834
1.069949984550476
1.4572399854660034
1.147379994392395
0.936972975730896
1.0759600400924683
1.1924899816513062
1.2841299772262573
1.2385499477386475
1.173069953918457
1.387779951095581
1.8053799867630005
1.8195600509643555
1.2565900087356567
0.8314260244369507
1.1566400527954102
1.52114999294281
1.8103599548339844
1.6605000495910645
1.8133200407028198
2.355600118637085
2.065959930419922
1.6229000091552734
1.5499999523162842
1.5911099910736084
1.7273499965667725
1.8902499675750732
2.054110050201416
2.053270101547241
1.742110013961792
1.4866700172424316
1.3218300342559814
1.437999963760376
1.7151800394058228
1.6119400262832642
1.325700044631958
1.6857399940490723
2.005350112915039
1.9554100036621094
1.8744100332260132
1.8600000143051147
1.8923200368881226
2.0529301166534424
2.216520071029663
2.385119915008545
2.3150200843811035
2.0060999393463135
1.970810055732727
2.0711700916290283
2.135960102081299
2.100800037384033
1.945680022239685
1.9690899848937988
2.1839799880981445
2.607719898223877
3.0999999046325684
