# vtk DataFile Version 2.0
Vessel Segment
ASCII
DATASET POLYDATA
POINTS 64 float
-10.445703404703341 -14.622869777209877 -2.3264857753668657
-9.455100829452123 -14.548938600220678 -1.990685551642613
-8.525821934655552 -14.383839370151025 -1.75069954033075
-7.550346399824005 -14.154588535924987 -1.552784754767646
-6.581554286126584 -13.89368021871235 -1.402333755914796
-5.609881135989558 -13.62846521048965 -1.2818691300543412
-4.632311263986492 -13.37728009033118 -1.1782229245818827
-3.648877266757159 -13.146121061878945 -1.084201849082145
-2.6611896470391385 -12.929607507736618 -1.000547700544727
-1.6720082600791124 -12.713803664679308 -0.9344912440394857
-0.6859886839146194 -12.47863845054888 -0.891666318213112
0.28897634551679946 -12.199090888211774 -0.8671670925923549
1.2397780644030958 -11.846264031752614 -0.8417067752141196
2.1429458536088433 -11.388310676328503 -0.7846887551318464
2.95362103732109 -10.791342876520075 -0.665457866181539
3.591359989084538 -10.022583757706904 -0.4952665996836242
3.970054251070128 -9.08715580374297 -0.4181441004688846
4.122948585378409 -8.10100281858604 -0.5918043140502713
4.179302075395469 -7.166140906368262 -0.980804460676698
4.198078213223214 -6.285302482058556 -1.4836605860365888
4.1617191760518315 -5.4347193267457765 -2.0354500006476526
3.9992138368145014 -4.599587172243235 -2.587313086062633
3.59475900770318 -3.8047755155979033 -3.0671092682755927
2.909535418382282 -3.128705664297967 -3.381111310448912
2.064488877903659 -2.5845863535829836 -3.5143955648008363
1.1678731908914737 -2.1104073736981097 -3.5030869529249458
0.27712703141764 -1.6465489662523936 -3.3606909596873105
-0.5515057047886942 -1.1482004413663696 -3.058533293502671
-1.1772145457214485 -0.58883040854757 -2.4926209237332997
-1.2029384558112137 -0.12543696166170362 -1.6063639513727561
-0.6796181787021759 0.027567290911158695 -0.7516201447182254
0.0 0.0 0.0
0.7032624162359782 -0.11004012650496145 0.72300899316359
1.3667065289915656 -0.24951477966334085 1.477707985005898
1.9377907595666917 -0.3718707339537799 2.3068632092289922
2.3874313556935878 -0.43077575680061336 3.2139519890717723
2.737301179274357 -0.3967309751497073 4.165443766451053
3.0398348879219235 -0.26564733302293336 5.124825855814908
3.3358822207937884 -0.04692840176343348 6.070160669129834
3.6370450605580302 0.24332100573396886 6.994534513685458
3.9295588207532743 0.5853172257203577 7.903783125839736
4.186462165507133 0.9587742325614166 8.811484105767297
4.376172984733921 1.3413312227312468 9.73166237713099
4.469341514118987 1.7056777411371058 10.673813355472314
4.442516814711214 2.0165860220020715 11.638766987519071
4.274883233656103 2.2332399792807944 12.614997144152658
3.9537547046418964 2.3190290796143547 13.572788758819211
3.490618009120625 2.263119311350886 14.472964734182023
2.919849716428632 2.0852527936716356 15.292201347039132
2.277678621423206 1.812529047228613 16.028476797319318
1.5941338628765362 1.4610896595421476 16.690555570879418
0.8954705882436121 1.0344909197086885 17.28966063708162
0.20944965597972548 0.5299143886313501 17.840922991569485
-0.43357832717934786 -0.05210492689713136 18.36708332231312
-1.0060326925855028 -0.6981655308525468 18.899994763121494
-1.4939838413507984 -1.3773642715950678 19.474182649563307
-1.9051328716709566 -2.0473318421247932 20.115360866128338
-2.262456103976169 -2.6666739379059927 20.834904508375445
-2.5927621154293123 -3.203712989540732 21.629470362521506
-2.9135160553829795 -3.639823725780109 22.48722128574574
-3.219230075411382 -3.966779658420185 23.3974916937096
-3.461482725550508 -4.180351952931577 24.360962069285822
-3.5517720786749245 -4.2775602819613905 25.345272766660777
-3.026447554317174 -4.255736731256733 26.234248958456458
LINES 1 65
64 0 1 2 3 4 5 6 7 8 9 10 11 12 13 14 15 16 17 18 19 20 21 22 23 24 25 26 27 28 29 30 31 32 33 34 35 36 37 38 39 40 41 42 43 44 45 46 47 48 49 50 51 52 53 54 55 56 57 58 59 60 61 62 63
POINT_DATA 64
SCALARS MaximumInscribedSphereRadius float
LOOKUP_TABLE default
1.2400000095367432
1.0551600456237793
1.0140700340270996
1.1849100589752197
1.1025099754333496
1.005120038986206
1.144919991493225
1.1416499614715576
1.0012999773025513
1.1006300449371338
1.1400699615478516
0.779807984828949
1.1264899969100952
1.8590400218963623
1.8047800064086914
1.2906800508499146
1.2428200244903564
1.6526000499725342
1.8494199514389038
2.1116600036621094
1.8866000175476074
1.3723499774932861
1.249019980430603
1.2569400072097778
1.2744200229644775
1.2771999835968018
1.4355700016021729
1.8037199974060059
2.1275200843811035
1.5452500581741333
1.029960036277771
1.253980040550232
1.622189998626709
1.7766599655151367
1.5789799690246582
1.5499999523162842
1.5499999523162842
1.5954500436782837
1.7780699729919434
1.6569000482559204
1.3081400394439697
1.2403199672698975
1.3100600242614746
1.5066800117492676
1.7071599960327148
1.7560499906539917
1.3693000078201294
1.550469994544983
1.8903499841690063
1.9379500150680542
1.826859951019287
1.610700011253357
1.5657399892807007
1.626330018043518
1.7883000373840332
1.9745899438858032
2.1507298946380615
2.2280399799346924
2.4167098999023438
2.750349998474121
2.30580997467041
1.9414700269699097
2.009320020675659
1.5499999523162842
