# vtk DataFile Version 2.0
Vessel Segment
ASCII
DATASET POLYDATA
POINTS 64 float
1.3132855559927783 -11.890015871260648 0.42363251445506733
1.3579104249532492 -11.346279401163349 -0.4681560857321611
1.3258811892944233 -10.88435167169389 -1.3247023261704525
1.272829464920565 -10.3799886620901 -2.217635758146084
1.2300798228350682 -9.812682585005943 -3.0544728535928596
1.2390208608283908 -9.10418895118374 -3.7799990527468643
1.3115191535797723 -8.224608296442625 -4.277514998821161
1.3299912931718127 -7.254157320216589 -4.5753233581096975
1.0972334307120153 -6.323688342720056 -4.896173985258152
0.5885085929289936 -5.54866222203593 -5.30672003593707
-0.08048890215374868 -4.889202710908668 -5.689531270087034
-0.844040705258387 -4.273109263115686 -5.946393396679583
-1.675349225305648 -3.6993105899962924 -6.036807234181223
-2.5743560825243708 -3.2319116687994436 -5.991355864546366
-3.549994619656256 -2.9765704829924076 -5.890252731644147
-4.559745302842877 -2.997441695633262 -5.804847849237843
-5.547055086749601 -3.233097334952526 -5.742584595655426
-6.484494348179311 -3.552535162305712 -5.660634415257642
-7.5087688924107665 -3.952576526233974 -5.529831991688511
-7.683440241945353 -3.398800822084491 -4.947409057743344
-6.851045299644405 -2.820186495426273 -4.825243660969008
-5.929504030891982 -2.4156584580428966 -4.8000629421967895
-4.9300295838686585 -2.239278297224103 -4.852120496393415
-3.917715385335286 -2.275212322162721 -4.890581912908715
-2.921973612593265 -2.456113757611278 -4.823676690162789
-1.971495511132151 -2.6567015638878266 -4.533337713071277
-1.162928672877959 -2.693216876098169 -3.9282495361601435
-0.6172651479381726 -2.450380627012611 -3.1106096345566505
-0.2993997020960455 -1.9924654206690666 -2.2633843283219273
-0.11982876977927365 -1.4032398963247348 -1.4575522840543897
-0.028288239108561018 -0.727885987561054 -0.7061668625951101
0.0 0.0 0.0
-0.020435258646283868 0.7452894472240892 0.6881291006430793
-0.07619523502449936 1.468227223582874 1.397731982567998
-0.14845196296868368 2.1309548331863675 2.1624467096561304
-0.21346961993670668 2.711955370049596 2.991447987797818
-0.2522986816241101 3.216958978729898 3.8705352265201096
-0.2582576265000995 3.6690226737770173 4.778838537601616
-0.23886488057571023 4.091259117360293 5.701127179912828
-0.21342247089723806 4.494611769126202 6.631825034705001
-0.20577744473831636 4.871242761527311 7.573819496435386
-0.23574051528674103 5.196945844556898 8.534184537110974
-0.30823656028643853 5.441631706249301 9.516053836281987
-0.40957636866229874 5.5790727060009555 10.516000505103523
-0.5114293794087358 5.585742213276569 11.525173427420519
-0.5787997066121547 5.436298179171158 12.526042461259156
-0.5806777294686337 5.1116943049127865 13.486738153881936
-0.5032581595546607 4.619674671373022 14.370095414791928
-0.3555418474011089 4.002211691839533 15.16120100632647
-0.1604444159347894 3.3161719619707952 15.882724116052922
0.059166454212104105 2.61096233841123 16.578330675149335
0.28721508575206134 1.9251887405355177 17.290380912403158
0.5151994095005489 1.2914056606735256 18.049056522120274
0.7411675024400999 0.7421184327890905 18.87139861126435
0.9683244109068984 0.318955616760777 19.764752502527372
1.2039521124672954 0.08361984031668439 20.722462640715232
1.4615982598190307 0.11095254078110814 21.70222361662175
1.7561587823506766 0.4423194775934332 22.613197534778234
2.0884254577538703 1.0373096790973693 23.36339976704324
2.4418777186043443 1.8046511532646792 23.92464120249606
2.7966512072700405 2.6627139935273476 24.32686727806835
3.1426779762031325 3.578998799635681 24.63514766592918
3.452765427488035 4.466339212217636 24.889661307946294
3.742496723890006 5.403023838698914 25.25229225952631
LINES 1 65
64 0 1 2 3 4 5 6 7 8 9 10 11 12 13 14 15 16 17 18 19 20 21 22 23 24 25 26 27 28 29 30 31 32 33 34 35 36 37 38 39 40 41 42 43 44 45 46 47 48 49 50 51 52 53 54 55 56 57 58 59 60 61 62 63
POINT_DATA 64
SCALARS MaximumInscribedSphereRadius float
LOOKUP_TABLE default
1.2400000095367432
1.0599299669265747
0.9378319978713989
0.9300000071525574
0.9300000071525574
0.9340860247612
0.9414269924163818
0.8192930221557617
0.9693160057067871
0.9100900292396545
0.7976319789886475
1.0892800092697144
0.9082589745521545
0.8156729936599731
1.1681499481201172
1.0714099407196045
1.065269947052002
1.4996099472045898
1.7245399951934814
0.9300000071525574
0.9738360047340393
1.1555900573730469
1.2382899522781372
1.2400000095367432
1.242650032043457
1.3231899738311768
1.5080100297927856
1.5720399618148804
1.4576499462127686
1.2903300523757935
1.4041099548339844
1.5286600589752197
1.5499999523162842
1.4438799619674683
1.2703700065612793
1.2400000095367432
1.3881100416183472
1.746999979019165
1.7247899770736694
1.5377899408340454
1.3483999967575073
1.3844499588012695
1.6909500360488892
1.8182300329208374
1.9132599830627441
2.066770076751709
1.8459800481796265
1.357010006904602
1.4274400472640991
1.482300043106079
1.312399983406067
1.2561099529266357
1.3442000150680542
1.6561800241470337
1.775480031967163
1.635830044746399
1.7289799451828003
1.6808500289916992
1.337839961051941
1.4329500198364258
1.5601799488067627
1.5594300031661987
1.5609400272369385
1.5809999704360962
