# vtk DataFile Version 2.0
Vessel Segment
ASCII
DATASET POLYDATA
POINTS 64 float
-0.9647937828661339 -17.4650757464814 -0.4731594869863162
-1.611162687762443 -17.476754084921314 -1.273780438679731
-2.007826916803509 -17.229287261074013 -2.149744642724242
-2.026684431769015 -16.671374877074165 -3.002168078573898
-1.7144553324163476 -15.954871313117035 -3.6487562787992265
-1.2602128232609833 -15.198629855571374 -4.149099476294182
-0.7438961528838856 -14.430075478518503 -4.564239916462005
-0.2091969146052054 -13.654445824606922 -4.9410757135029
0.3086673557401255 -12.869256684910201 -5.3207752456430955
0.7548103960081618 -12.069028875544797 -5.758192076296251
0.9352510207945683 -11.259998879863451 -6.345340760232957
0.6032788916060214 -10.552699472331373 -6.979964562145393
-0.07471886723485666 -9.964793849080978 -7.458125665423106
-0.8670677948452375 -9.409543344118784 -7.762184005125549
-1.6950534258737728 -8.846764498380157 -7.926839028203195
-2.525780687928815 -8.265998990631598 -7.970317237736197
-3.3412776533766047 -7.665926191703682 -7.905500849860508
-4.129399991342959 -7.0487436002076675 -7.74049310959475
-4.876895987418438 -6.415849000619098 -7.475400593479192
-5.5575313336645955 -5.766879910564285 -7.096422826379712
-6.109913860677126 -5.098433313622963 -6.5637704427100125
-6.307421283646588 -4.450171385083564 -5.818435400811663
-5.899998273138227 -3.9900630440930382 -5.018729136365612
-5.132337155536872 -3.742340262840537 -4.395982585443831
-4.280195397872124 -3.5470550629391653 -3.8835767416127296
-3.4103528957127778 -3.3273935819935025 -3.4090598079705994
-2.5662800764301656 -3.034559173342172 -2.9284234707936214
-1.7902020419189442 -2.633799672920753 -2.412373351514913
-1.1303505618002845 -2.108261831208624 -1.8489604713414127
-0.6200384906543438 -1.4705964819242237 -1.2472582060115296
-0.2541590314004977 -0.7561356038022218 -0.6268455724707613
0.0 0.0 0.0
0.17947534290276088 0.7725717160926668 0.6327103174642499
0.3134486577573295 1.5416813717291538 1.2807452238090542
0.42099426495269343 2.28731603265586 1.9603257532509524
0.5114331647189698 2.9850747211215176 2.6912783263485296
0.5847272579471532 3.605116623927058 3.491001388079016
0.6341854022559653 4.115197766199719 4.366468242896512
0.6518649774128277 4.4918101468801375 5.308268590759684
0.6354898984141513 4.729070226328376 6.294516262513449
0.5894698872393906 4.837059637602687 7.302237711956207
0.5215427794662911 4.83385640224086 8.314518582498364
0.4404756756969612 4.739086358358745 9.3214005292121
0.3549951668420419 4.570631538806728 10.318244689065244
0.27312198226064477 4.3435215348684295 11.303706180124694
0.20217390031849478 4.0707089617070125 12.278355366137053
0.1482123153989598 3.7640596926032845 13.244001092441273
0.11496400861197915 3.4361045932303615 14.203559556863972
0.10292392372098032 3.1010502325964207 15.161161939263605
0.10944094000785684 2.774554062891589 16.121774677046808
0.12963102302156607 2.4730690891838414 17.0903448469132
0.15797749012997975 2.213001659546209 18.07060941586389
0.19016843674117737 2.0110456213467107 19.064418974986182
0.22548961932807482 1.8855890600152772 20.070498313781293
0.26753269442068633 1.8582327304173978 21.08386235631534
0.32676117048851683 1.9554182689052355 22.09196241660686
0.4219780629973464 2.2061244707508454 23.07039478289633
0.5784442825890057 2.6330445957648085 23.97712623030602
0.8178632605677495 3.237558537642884 24.755428054007613
1.1468515629151192 3.990059678842583 25.351821632639833
1.5500654364760067 4.831699334064318 25.742196220943665
2.014124073916744 5.722906454699254 25.9349547187771
2.49716904590907 6.590880240062224 25.966918261492978
3.0188546557682203 7.471050094233908 25.859668675134387
LINES 1 65
64 0 1 2 3 4 5 6 7 8 9 10 11 12 13 14 15 16 17 18 19 20 21 22 23 24 25 26 27 28 29 30 31 32 33 34 35 36 37 38 39 40 41 42 43 44 45 46 47 48 49 50 51 52 53 54 55 56 57 58 59 60 61 62 63
POINT_DATA 64
SCALARS MaximumInscribedSphereRadius float
LOOKUP_TABLE default
1.2400000095367432
1.0922900438308716
0.987417995929718
1.37923002243042
1.4424699544906616
1.2485400438308716
1.0734800100326538
1.0698699951171875
1.3804399967193604
1.6441500186920166
1.3268200159072876
1.025879979133606
1.441290020942688
1.4152799844741821
1.2868599891662598
1.2771999835968018
1.2587499618530273
1.0995800495147705
0.9784079790115356
1.1052900552749634
1.3076200485229492
1.4821100234985352
1.5499999523162842
1.5499999523162842
1.5551899671554565
1.5694600343704224
1.646880030632019
1.790910005569458
1.758489966392517
1.6135300397872925
1.5818500518798828
1.5824600458145142
1.8554699420928955
2.077549934387207
1.7169400453567505
1.3207299709320068
1.2400000095367432
1.3587900400161743
1.7249699831008911
2.011539936065674
2.140810012817383
2.1021299362182617
1.9464000463485718
1.983430027961731
2.124919891357422
2.0523900985717773
1.8948500156402588
1.7316299676895142
1.5915199518203735
1.8525099754333496
2.136080026626587
2.1331300735473633
2.1205201148986816
2.2458999156951904
2.370919942855835
2.44569993019104
2.292210102081299
1.989109992980957
2.014120101928711
2.144710063934326
2.1700000762939453
2.1700000762939453
2.1700000762939453
2.1700000762939453
