# vtk DataFile Version 2.0
Vessel Segment
ASCII
DATASET POLYDATA
POINTS 64 float
-1.1513419785778038 -16.113698543550292 -2.5293188277003553
-1.0547846493398831 -15.78800707263653 -3.5168433108544224
-0.9297553298340079 -15.291540462735457 -4.3467280402568935
-0.7760573961436161 -14.585323232484253 -5.072988836461839
-0.6192825278008199 -13.73048086750646 -5.591613398551865
-0.4752073976021394 -12.790746057610002 -5.9459236184479165
-0.3497620654107214 -11.814671713708783 -6.192519192719443
-0.24298824767422483 -10.825391832482444 -6.390798339974385
-0.15744593710091706 -9.83360495204101 -6.58689138423606
-0.10463304183636474 -8.845848501716992 -6.8124670084758705
-0.1111572063325921 -7.867854838572955 -7.082096657341904
-0.22833163099277407 -6.906868092670063 -7.384932361454485
-0.5394793144405061 -5.984504406361517 -7.668599328000265
-1.120105142368555 -5.171476293513328 -7.83211810539641
-1.9233967125122202 -4.553941575440238 -7.811305197364177
-2.8275318915215393 -4.125246627834858 -7.645453627600303
-3.7628732835161327 -3.826316521894229 -7.390814813479457
-4.702301467102498 -3.6085165672931336 -7.074990254079594
-5.623442333526962 -3.432115374248583 -6.691815497820133
-6.515791681652802 -3.2662087539031166 -6.2298109080483615
-6.94532289975011 -2.9818111542744243 -5.365462398956164
-6.184933955840285 -2.8357728093663397 -4.749875391487844
-5.238766245921669 -2.8288623048395816 -4.40107880684316
-4.260021277989907 -2.8794906457310474 -4.126503606252035
-3.2835583145744893 -2.952480745793074 -3.864154154109906
-2.3153464125503964 -3.0106139825621514 -3.566063235939909
-1.3812412255602302 -2.993283500161296 -3.171500241880472
-0.5637935419177814 -2.7954020654155403 -2.6073126650149425
-0.029161765677005163 -2.3253978381250175 -1.888820412449979
0.17039674594088733 -1.642038944561087 -1.167047405977339
0.14645574432221964 -0.8498662043418206 -0.5342777875597395
0.0 0.0 0.0
-0.21273271378711728 0.8834476762410972 0.4510038771343199
-0.4636752549736231 1.7839980019949344 0.8452998567963731
-0.740955368105975 2.6850015977284554 1.2203602215253484
-1.0418842569115225 3.5654473613712474 1.6246791354301442
-1.3649595994884873 4.392508434623278 2.1151453212979914
-1.6982715499278536 5.114698241684354 2.744219111377421
-2.0096655367432206 5.669622567517805 3.5334298460735307
-2.2515749658422184 6.01279053057113 4.456121982736776
-2.382177359157329 6.143082842595439 5.453135262228222
-2.381840050948772 6.097713496270432 6.46626562634322
-2.25677641453209 5.928233048885729 7.458457180976228
-2.0311795173941487 5.682204414805892 8.416475514004958
-1.7370094998315182 5.392717764747223 9.343273887566763
-1.4051958515846141 5.076713731545262 10.2484688986168
-1.0599397046289267 4.737521598648669 11.140218671917694
-0.7150531644238803 4.371113901823744 12.021257280891355
-0.37361021270547357 3.976267905481039 12.891208945828566
-0.03204034914558103 3.562957199798589 13.75257298134525
0.3130832662187178 3.1551257676912714 14.615154186794348
0.6603467309196182 2.792122519843121 15.49658486445072
1.0000390867922122 2.5340041562728755 16.416840346745357
1.3111862495753062 2.4621884090273527 17.37913127602889
1.5698702767129602 2.646398763006103 18.34167981812287
1.776972084820821 3.0798607669110765 19.234544591435963
1.9660510705931067 3.693950736956845 20.019350393384766
2.1736416223842525 4.425991462979795 20.689982130996793
2.4268090617423597 5.234494021322261 21.247847583284138
2.742975117443724 6.089703770940419 21.693223689178396
3.1295875917278746 6.963783213939088 22.02526164511978
3.586884833649642 7.856308929412857 22.24574941432184
4.058814931099863 8.700798643034013 22.363853674527352
4.495434634319602 9.649031911960966 22.397377565747494
LINES 1 65
64 0 1 2 3 4 5 6 7 8 9 10 11 12 13 14 15 16 17 18 19 20 21 22 23 24 25 26 27 28 29 30 31 32 33 34 35 36 37 38 39 40 41 42 43 44 45 46 47 48 49 50 51 52 53 54 55 56 57 58 59 60 61 62 63
POINT_DATA 64
SCALARS MaximumInscribedSphereRadius float
LOOKUP_TABLE default
1.2400000095367432
1.2400000095367432
1.2400000095367432
1.2400000095367432
1.3067599534988403
1.4711400270462036
1.5499999523162842
1.5499999523162842
1.5499999523162842
1.5281800031661987
1.3994799852371216
1.2709300518035889
1.3046900033950806
1.6640700101852417
1.9657399654388428
1.888409972190857
1.6800700426101685
1.3996299505233765
1.2400000095367432
1.259369969367981
1.4056600332260132
1.5699100494384766
1.758579969406128
1.779170036315918
1.6121100187301636
1.78656005859375
2.1702499389648438
1.7839800119400024
1.5499999523162842
1.5499999523162842
1.5499999523162842
1.6183099746704102
1.763219952583313
1.7097400426864624
1.3908100128173828
1.2465100288391113
1.2400000095367432
1.271209955215454
1.3701800107955933
1.6709599494934082
1.8575299978256226
1.8647799491882324
1.8600000143051147
1.861780047416687
1.8726600408554077
1.9275799989700317
2.065890073776245
2.106719970703125
1.944790005683899
1.8600000143051147
1.8600000143051147
1.8600000143051147
1.8600000143051147
1.8641400337219238
1.9461400508880615
2.1578400135040283
2.4630000591278076
2.6805899143218994
2.2405800819396973
1.9626100063323975
2.317620038986206
2.4800000190734863
2.600480079650879
3.0999999046325684
