# vtk DataFile Version 2.0
Vessel Segment
ASCII
DATASET POLYDATA
POINTS 64 float
-5.81363130340106 -11.139107193489362 0.09412897718830034
-4.866471235380626 -11.266255320234277 -0.3163599986435942
-4.003304682036719 -11.036330459795684 -0.7367413473056783
-3.1799281261067307 -10.608052578827666 -1.1449066869181406
-2.3777526911900733 -10.11076811164437 -1.5182971994288408
-1.549646828635936 -9.63471609388451 -1.8600346923237823
-0.6723003222474344 -9.235764933722386 -2.176215437403793
0.24572810942893078 -8.921335164919764 -2.4719626027048935
1.177950827266921 -8.629692183017184 -2.7463752193218967
2.0618084315941583 -8.185060475668287 -2.965869002812568
2.6036509744418526 -7.345183832362377 -2.9964540554825945
2.637362328721399 -6.346960504992816 -2.838970065958043
2.38146034572541 -5.389507295856553 -2.6271474745348633
1.9415442791765856 -4.501209958781062 -2.4140757580865393
1.356607673699528 -3.6971217392169766 -2.2152668420867747
0.6508243349298415 -2.9916092932197813 -2.0350730472242744
-0.1499770338762719 -2.3885654785284305 -1.8811002902968519
-1.0150523477998765 -1.8723110779275214 -1.7622704743583908
-1.919205848806117 -1.4215388984159125 -1.669865189921338
-2.8470985287426673 -1.023774355623862 -1.569520682045225
-3.7845498477325767 -0.6696818047852905 -1.411946471894111
-4.70585472369558 -0.34677103575198526 -1.1374998451959943
-5.54783842738728 -0.03285837033396831 -0.6703019610346764
-6.120754287314193 0.3169791679080514 0.08201500403558469
-5.977003985981502 0.7153423968544873 0.9797478339190877
-5.213589488442671 1.0611684879935332 1.5410166245714698
-4.256506424699931 1.328155076497571 1.7312087713164444
-3.263864699204308 1.4822251366852808 1.6072482700669166
-2.3239229000892694 1.4400302630768524 1.2338232767432
-1.482755323812205 1.1455334116503753 0.7524232169563245
-0.7234089155871274 0.6377388668429453 0.31306517460817723
0.0 0.0 0.0
0.7223907711828382 -0.6959799732526147 -0.14704758720151956
1.454071499680716 -1.393492985587059 -0.07866628745414689
2.1613787096179014 -2.002921562665234 0.30854984260419643
2.7251746655363323 -2.356401516828885 1.066261305779622
3.071836908731572 -2.3852565813806255 2.016238509313859
3.240541928591155 -2.158750176095157 2.9890063216149976
3.2404569704101243 -1.7224389941867426 3.9029157944003163
3.005571077945857 -1.1015668022218998 4.665540348699863
2.4621028322983585 -0.39703923162257276 5.142956407899327
1.6983972295192684 0.2392414161490457 5.339043743626287
0.8573773678593132 0.7994188156539528 5.429324747019423
0.030711722442867226 1.362604926485171 5.595662703194114
-0.6172384766402675 2.00489794497327 6.026820463714206
-0.8875550071055625 2.6763396120625758 6.731914283845664
-0.8421455414412973 3.291773292052234 7.535249145021919
-0.5854544443153323 3.818364826305003 8.362386633847136
-0.1736301623565351 4.206397181584135 9.203315385294445
0.32465969190887284 4.3569115071699125 10.071723732786412
0.7359613983906075 4.096978801905775 10.95390081577903
0.8250659330021961 3.4369588068384305 11.712596270704957
0.6853653688212104 2.654229498264493 12.3421109730376
0.5106657598313943 1.8689964887884378 12.960346350412909
0.41268218295403675 1.1171075972511224 13.63384127627697
0.4308487994107212 0.4196863497125948 14.369985943476067
0.5081139508332795 -0.23780323447833981 15.138857403831775
0.5381647138002316 -0.8966152366160164 15.909561868052874
0.4464673784330167 -1.576385500167014 16.656568827445497
0.24464777137217303 -2.263107288515583 17.375477912477663
0.008755342074337015 -2.9404415946111104 18.093236500548265
-0.11713091785424079 -3.588014839819221 18.861622057800155
0.30747736525121677 -3.99573938525691 19.625109756409202
1.2861716488544765 -3.8713714137111155 19.963773521180787
LINES 1 65
64 0 1 2 3 4 5 6 7 8 9 10 11 12 13 14 15 16 17 18 19 20 21 22 23 24 25 26 27 28 29 30 31 32 33 34 35 36 37 38 39 40 41 42 43 44 45 46 47 48 49 50 51 52 53 54 55 56 57 58 59 60 61 62 63
POINT_DATA 64
SCALARS MaximumInscribedSphereRadius float
LOOKUP_TABLE default
1.2400000095367432
0.810558021068573
0.6206039786338806
0.758994996547699
1.2561299800872803
1.030310034751892
0.6868489980697632
0.6928840279579163
1.0729600191116333
0.8549649715423584
0.8590630292892456
1.1381700038909912
1.0794899463653564
0.9300000071525574
0.9300000071525574
0.9300000071525574
0.9300000071525574
0.9300000071525574
0.9300000071525574
0.9524999856948853
1.2335200309753418
1.5499999523162842
1.5650800466537476
1.6561800241470337
1.0700000524520874
1.3863099813461304
1.3456799983978271
1.2400000095367432
1.3425899744033813
1.5901299715042114
1.7733900547027588
1.8976399898529053
1.9238200187683105
1.8226499557495117
1.6168700456619263
1.7864400148391724
1.8600000143051147
1.7621999979019165
1.5391600131988525
1.3287099599838257
1.430150032043457
1.5499999523162842
1.5744400024414062
1.6121200323104858
1.1566100120544434
1.2732700109481812
1.496000051498413
1.420740008354187
1.4798200130462646
1.6415799856185913
1.9078700542449951
2.0431299209594727
1.3922100067138672
1.241420030593872
1.3467999696731567
1.5239499807357788
1.3566900491714478
1.6209700107574463
1.6725200414657593
1.2528799772262573
1.2647199630737305
1.3939800262451172
1.5901399850845337
1.667799949645996
