# vtk DataFile Version 2.0
Vessel Segment
ASCII
DATASET POLYDATA
POINTS 64 float
-3.502621431661025 -17.52173845290584 -0.778224095869415
-2.548249806613801 -17.351687281961837 -1.1634855885847022
-1.7628798846936053 -16.96675692342283 -1.59723971005143
-1.1306940415375906 -16.34137658213528 -2.1038717711286363
-0.7326078502521022 -15.567517438906439 -2.621426074596585
-0.46827161146371116 -14.737163066535048 -3.1414974033434815
-0.2580750578410019 -13.895933412171336 -3.6683218848681345
-0.053624453308185 -13.063384843754552 -4.210962348758179
0.1558543496388122 -12.248829035149457 -4.7784402642659956
0.345232824580444 -11.457346883096488 -5.3842529392010094
0.43769569559922167 -10.69409980476444 -6.04599720007864
0.2959660136698677 -9.980638338260862 -6.75171689588288
-0.169151320481597 -9.362517216938796 -7.405828824784706
-0.8865691500192115 -8.852552692081993 -7.908897497340249
-1.7364795836073654 -8.413335015461955 -8.245592890372627
-2.644551570217163 -8.003518277814475 -8.436617625592058
-3.5690748650294175 -7.5908177020696925 -8.499314326463047
-4.478215832974489 -7.144871284321684 -8.438574737861995
-5.326006172730117 -6.62440651619597 -8.239357694103118
-5.957661461796061 -5.941274122193055 -7.834195539551822
-5.888364052327053 -5.157619229216269 -7.241377799838171
-5.200915368011747 -4.589403612090918 -6.739066607710402
-4.382085489721689 -4.1666680140652925 -6.318225534995948
-3.5445857007219126 -3.788563901926276 -5.887777813224952
-2.742512177060167 -3.414861589293469 -5.39154585626455
-2.0265773192047436 -3.0243835093804043 -4.788500330350764
-1.4434203774402323 -2.6092556201844705 -4.0700439673376465
-1.0082368475465144 -2.1677120564447954 -3.2672483187152346
-0.693721427846396 -1.6944780792548972 -2.4268302863402305
-0.44775644801722564 -1.1794870487319296 -1.5879774518381045
-0.2244969995942626 -0.6147684186143451 -0.775194837023433
0.0 0.0 0.0
0.228235320061123 0.6576263235506729 0.7381385731545473
0.44814991557687334 1.3454192698836176 1.4508518289458638
0.6403849006921277 2.046926574917202 2.1581279445159933
0.7852364766481893 2.7425026024979995 2.882474307181058
0.8691809523352969 3.410181176092356 3.641680031188948
0.8865257601596619 4.027876096986566 4.446188294778609
0.8385678358683777 4.572943292738281 5.300475014766435
0.7321197925962056 5.02116017308091 6.204244194880448
0.5781343345562265 5.346092189395886 7.152719839035408
0.3913608941566707 5.519872132661169 8.13436982590363
0.1907507900472534 5.519010975771855 9.128553327963612
-0.003280290422590261 5.334706644217208 10.106813881958557
-0.17284967055323455 4.981960551148194 11.042549892047088
-0.3074392241681503 4.496390086052475 11.92299405479015
-0.4036984912533758 3.921585310483287 12.753390216893203
-0.4621339820240598 3.298568866286956 13.552017313711895
-0.4831681326716039 2.6655295424647836 14.344626277141787
-0.46569946049070143 2.0611888104652722 15.159388818722023
-0.4062155170412303 1.532296096942363 16.022933574866492
-0.30082548359194955 1.1386629217701552 16.951722272080374
-0.1524128938284875 0.9475856802780838 17.93632596551854
0.024339092435105174 1.0060664149186473 18.932890164723357
0.20757346237096821 1.306929462446151 19.883724309054415
0.38158349284266463 1.79486884459886 20.755736639186733
0.5420120504540149 2.410253538735228 21.546088314916148
0.6918568159424509 3.111598791484568 22.263587321395175
0.8376589507794734 3.8744745578988966 22.916337595063347
0.9879617996062433 4.685137299327653 23.508350109861727
1.1508284062609104 5.5311983103827105 24.038525011793755
1.342021827051509 6.424255848949267 24.50888555283709
1.552712437529491 7.294833965613042 24.8949090966745
1.8322856994842214 8.24624865440053 25.220016895315425
LINES 1 65
64 0 1 2 3 4 5 6 7 8 9 10 11 12 13 14 15 16 17 18 19 20 21 22 23 24 25 26 27 28 29 30 31 32 33 34 35 36 37 38 39 40 41 42 43 44 45 46 47 48 49 50 51 52 53 54 55 56 57 58 59 60 61 62 63
POINT_DATA 64
SCALARS MaximumInscribedSphereRadius float
LOOKUP_TABLE default
0.9300000071525574
1.2300699949264526
1.4603899717330933
1.3602900505065918
1.267930030822754
1.2423499822616577
1.240049958229065
1.3032499551773071
1.633579969406128
1.7286399602890015
1.5683200359344482
1.4429800510406494
1.448140025138855
1.535040020942688
1.5499999523162842
1.432729959487915
1.1395299434661865
1.0750000476837158
1.4175299406051636
1.3852699995040894
1.2400000095367432
1.363420009613037
1.5047500133514404
1.3542499542236328
1.3161200284957886
1.4622000455856323
1.398669958114624
1.325160026550293
1.4879599809646606
1.6733200550079346
1.7926900386810303
1.6963599920272827
1.6934800148010254
1.9918400049209595
2.071589946746826
1.9000200033187866
1.724120020866394
1.6236799955368042
1.7227400541305542
1.7440299987792969
1.4405200481414795
1.393399953842163
1.7098699808120728
1.7826199531555176
1.6789100170135498
1.6046299934387207
1.5499999523162842
1.5505399703979492
1.6629899740219116
2.0038199424743652
1.8671200275421143
1.343400001525879
1.6195000410079956
1.9269499778747559
2.0218899250030518
1.9767600297927856
1.875849962234497
1.8600000143051147
1.8600000143051147
1.8600000143051147
1.8600000143051147
1.8608800172805786
1.9854400157928467
2.1700000762939453
