# vtk DataFile Version 2.0
Vessel Segment
ASCII
DATASET POLYDATA
POINTS 64 float
-6.513309548558412 -12.95142075990806 0.7365123496191917
-5.606747689068619 -12.95530543192918 0.21972975060341723
-4.709501435133077 -12.932055369507781 -0.18674313125418268
-3.766161783254075 -12.84233560538238 -0.5478006480548909
-2.8210547828492154 -12.637015179219812 -0.8544216745527593
-1.915602778714497 -12.254075862381434 -1.1005766083445625
-1.1230096796901603 -11.647543464883338 -1.2721453549659298
-0.5092575483523727 -10.847135209839298 -1.367437769757551
-0.06316504113394422 -9.937776173527917 -1.4166628690211964
0.27828345886262834 -8.983998030088554 -1.4702267698860805
0.5726865767960758 -8.020626113192415 -1.5892145885457818
0.8455839122570465 -7.076835794132296 -1.8400552226734541
1.0785701455348842 -6.1896337985651195 -2.271239511525529
1.219784665507984 -5.3868968467451985 -2.8737676818556595
1.21800297156605 -4.663265199600107 -3.5837909310738305
1.0389342193964006 -3.988454371768301 -4.318879236657382
0.6616140953770386 -3.3339211636357495 -4.994292256824023
0.08617657217424747 -2.6918254252130174 -5.526144685886792
-0.650695315888242 -2.078039360328657 -5.852556300888306
-1.485884945280488 -1.5141935809584903 -5.960022168895516
-2.3617237704243212 -1.012018473229584 -5.868431816182761
-3.23582496146017 -0.5758900650490656 -5.59736125759596
-4.069320134093963 -0.2120738199340156 -5.149655392984996
-4.799027023006457 0.059375976872256084 -4.501986452708932
-5.257914306218783 0.1748019992198199 -3.611004811062851
-5.139912018264549 0.05041378289500692 -2.623214994213238
-4.539186385136721 -0.19879090445579262 -1.8484402248968053
-3.729480819414478 -0.42908879859043947 -1.2841064577280816
-2.819383462950267 -0.571347939717155 -0.8604867751879421
-1.8605320273349484 -0.570663788324103 -0.5312070554005509
-0.9026499017251093 -0.3821668448586132 -0.25847292983745485
0.0 0.0 0.0
0.8138114226115696 0.5307353463394101 0.290424402703054
1.53511747299824 1.1457082019358569 0.65113826276866
2.1689190920903565 1.7922611487276212 1.1081009944157802
2.711148133388344 2.431006747672885 1.679303198958747
3.143536142768134 3.026264926444894 2.3767785628505935
3.4339254072607464 3.537847708238557 3.202045526502828
3.5474895803991364 3.9200195387796506 4.133364646155977
3.469599345904656 4.136353793655104 5.120030946863183
3.220937037675778 4.177251829215846 6.101601189231305
2.845580575199366 4.05838982642741 7.03579757124535
2.3898805296429986 3.803955059987875 7.905252318095549
1.8926417191566547 3.4333037814691925 8.70777657443158
1.3855192967427319 2.959929106551979 9.44776086110374
0.896551125921093 2.3953691512248607 10.134122383434542
0.4524946887323749 1.7534214766504452 10.782022134703794
0.07852235097645245 1.0542387725568125 11.41473486226663
-0.2072369650297463 0.32547028969109093 12.059855193315999
-0.4059027100674593 -0.40028930212047814 12.740181691180966
-0.5436483093037332 -1.0914823805784304 13.46982773065941
-0.6579549761329102 -1.7181932844178796 14.25921577015476
-0.7830440070665465 -2.243476839991153 15.117648919683043
-0.9401074448527618 -2.6155092471867576 16.047385923068674
-1.127654700129865 -2.7685482503968384 17.031200324761848
-1.3132460663310594 -2.6465119062535076 18.019209476036067
-1.439867172351887 -2.2370205499541584 18.936396280254463
-1.4536789252719828 -1.5861839983041794 19.712075281340077
-1.331657270820577 -0.7810467016062699 20.31493213478272
-1.0849789870826347 0.09303636099258851 20.765726277219706
-0.7396432939219199 0.9781652680887948 21.12227325240981
-0.3232675111235477 1.8365789242318262 21.466130636797597
0.12318999316403333 2.6087856947666834 21.89740810507101
0.5298435588374063 3.1642069543145266 22.671398558306496
LINES 1 65
64 0 1 2 3 4 5 6 7 8 9 10 11 12 13 14 15 16 17 18 19 20 21 22 23 24 25 26 27 28 29 30 31 32 33 34 35 36 37 38 39 40 41 42 43 44 45 46 47 48 49 50 51 52 53 54 55 56 57 58 59 60 61 62 63
POINT_DATA 64
SCALARS MaximumInscribedSphereRadius float
LOOKUP_TABLE default
0.9300000071525574
1.1359100341796875
1.1417299509048462
0.9695550203323364
0.9300000071525574
0.9300000071525574
0.9844059944152832
1.2171800136566162
1.4468499422073364
1.5499999523162842
1.528630018234253
1.4394700527191162
1.5556000471115112
1.62608003616333
1.5713900327682495
1.62663996219635
1.5059700012207031
1.4397900104522705
1.5410100221633911
1.5501999855041504
1.5619499683380127
1.541159987449646
1.3363699913024902
1.4816099405288696
1.7399499416351318
1.8307499885559082
1.941480040550232
1.8426899909973145
1.6333800554275513
1.6973199844360352
1.8485499620437622
1.8600000143051147
1.8600000143051147
1.8600000143051147
1.898229956626892
2.0408899784088135
2.2548000812530518
2.2948999404907227
1.9244400262832642
1.8600000143051147
1.8600000143051147
1.88864004611969
2.0989599227905273
1.8935500383377075
1.6256400346755981
1.7155200242996216
1.811900019645691
1.9470200538635254
2.1821699142456055
2.4029300212860107
2.1672799587249756
1.9366799592971802
2.1321399211883545
2.1903998851776123
2.3208301067352295
2.4029200077056885
2.129300117492676
2.0159900188446045
2.0544700622558594
2.150909900665283
1.9424699544906616
2.386080026626587
2.90775990486145
2.4800000190734863
