# vtk DataFile Version 2.0
Vessel Segment
ASCII
DATASET POLYDATA
POINTS 64 float
-9.869589310459867 -13.24912318480883 0.9434641162409232
-8.864312253070107 -13.316494990682626 0.6836516440829046
-7.926101937475829 -13.358052707370664 0.4089410381777042
-6.94272507460326 -13.36970729211339 0.11066765898443692
-5.975885611719721 -13.336982155179344 -0.1833098999382494
-5.005331947233306 -13.254228280257584 -0.46984528481129134
-4.037955731854618 -13.116148385345385 -0.7422232845174896
-3.075170328005021 -12.91675345198521 -0.9925175189217356
-2.119938320276028 -12.647014135139846 -1.2023727256354189
-1.1782720148823929 -12.295920454371242 -1.3406936778669567
-0.26289473036693367 -11.859861562609511 -1.3685020408642463
0.6100977321101466 -11.353007354827291 -1.2684724158035727
1.4340699190111224 -10.794726740262043 -1.0715143644421499
2.211188799774343 -10.180870684353492 -0.8522095935462435
2.9227117413845067 -9.466986658417751 -0.7400201373120147
3.451074840163555 -8.625673605292942 -0.9320157920601376
3.6932480305699356 -7.77140428738488 -1.4231206349908812
3.7523086513618416 -6.951901349346305 -2.0174330750081197
3.711542109285276 -6.1383999263018945 -2.622446596572994
3.594276024960667 -5.310506207710977 -3.1969891189423545
3.3871878952406917 -4.460292307093484 -3.710166008719809
3.0514682963114237 -3.5978007298181707 -4.124992360928582
2.5514718705632538 -2.7581550429015818 -4.395539087012967
1.8973588283553648 -1.9891562022212148 -4.490588469488244
1.145786865552154 -1.311960530132453 -4.41767007849133
0.35788639131022304 -0.7104733493578838 -4.20166986978552
-0.41445022344665344 -0.1591480900716014 -3.8433886674359616
-1.097826118274809 0.35081348664234846 -3.296306420772001
-1.4528055022714983 0.7366498663072721 -2.4320633209079263
-1.1825488981615708 0.740707963408806 -1.4576239773259365
-0.6210157773550633 0.44294357299925313 -0.6688369811137952
0.0 0.0 0.0
0.6251558204243536 -0.5237458227301574 0.6034667273788473
1.246122320969761 -1.0808954364809635 1.1809483615217182
1.8812094325764812 -1.6102549916813198 1.7688155906036953
2.564902847107093 -2.0000619607613235 2.4084051426778332
3.286563707865094 -2.0860727278250004 3.1140714578702533
3.941664206897606 -1.8424515881875911 3.848852409798535
4.4588851806923175 -1.4053628005339975 4.603874392555655
4.818736164708488 -0.8827939694457543 5.395216906211158
5.011254714789803 -0.34122274724983404 6.231043328441733
5.03441815213979 0.17155931392839033 7.105770455992302
4.898375193910873 0.6206179837715711 8.005069864864446
4.6237832077791445 0.9819014167512741 8.912330204019252
4.235433842119031 1.2407099438818334 9.812948492820224
3.75833519067159 1.3907362293864436 10.695502507966808
3.2159055951892888 1.4333128974217213 11.551704986602662
2.6298924788653415 1.3779614112951941 12.37803371234054
2.0194732768178385 1.2421621037800699 13.176933424853697
1.3993969256907186 1.0485306683493771 13.956299257668752
0.7786110180007815 0.8183574872067264 14.725082537004008
0.1607632610789 0.5669484029679709 15.489598308752367
-0.4541873046252684 0.29920460951059946 16.250887312404178
-1.067175141137578 0.008794273840655236 17.005428678899463
-1.6759970938705897 -0.3178117313601855 17.748421882730767
-2.2720482642197 -0.6938180432866017 18.478259026778268
-2.8392955278070797 -1.1258557541151906 19.20000082763266
-3.355979826065971 -1.6099351768542605 19.92664129900902
-3.7959280890052933 -2.1299535370214318 20.678524681756734
-4.124766138804674 -2.6523768382802295 21.483724268587945
-4.295424898675814 -3.113284600875024 22.36944747004236
-4.237126568903222 -3.3708955929609474 23.3565147537431
-3.973741096660644 -3.3209540694652175 24.299065676711187
-3.553889635392886 -2.940246370268475 25.17101593629886
LINES 1 65
64 0 1 2 3 4 5 6 7 8 9 10 11 12 13 14 15 16 17 18 19 20 21 22 23 24 25 26 27 28 29 30 31 32 33 34 35 36 37 38 39 40 41 42 43 44 45 46 47 48 49 50 51 52 53 54 55 56 57 58 59 60 61 62 63
POINT_DATA 64
SCALARS MaximumInscribedSphereRadius float
LOOKUP_TABLE default
0.9300000071525574
1.111989974975586
1.2400000095367432
1.2400000095367432
1.2400000095367432
1.2400000095367432
1.2400000095367432
1.2400000095367432
1.260349988937378
1.2933000326156616
1.355780005455017
1.3616199493408203
1.363800048828125
1.5481499433517456
1.3448400497436523
0.9628509879112244
1.2858200073242188
1.5870699882507324
1.8062800168991089
1.912950038909912
1.837820053100586
1.6087599992752075
1.5644700527191162
1.5393600463867188
1.3657100200653076
1.2856099605560303
1.351430058479309
1.325350046157837
1.2477999925613403
1.3344899415969849
1.7344900369644165
1.8377000093460083
1.644569993019104
1.8156299591064453
2.1048800945281982
1.9469399452209473
1.721850037574768
1.5770399570465088
1.6347600221633911
1.637719988822937
1.594480037689209
1.6220300197601318
1.6729400157928467
1.7790700197219849
1.861780047416687
1.877060055732727
1.827299952507019
1.7093299627304077
1.6694200038909912
1.6682699918746948
1.7635899782180786
1.9228500127792358
2.247349977493286
2.3147599697113037
2.01924991607666
1.8783799409866333
1.88100004196167
1.8748699426651
1.8654299974441528
1.8738600015640259
2.067189931869507
2.501349925994873
2.41129994392395
2.1700000762939453
