# vtk DataFile Version 2.0
Vessel Segment
ASCII
DATASET POLYDATA
POINTS 64 float
1.9648625849174888 -9.934612038852883 -3.2350490167080275
2.1235118942214073 -9.425782510503872 -4.095374141875544
2.188718498054298 -8.546827986675824 -4.576825100575832
2.1694563845304837 -7.552822193741799 -4.769991039075612
2.083011656938099 -6.543542970973295 -4.819278151279854
1.9092645081062491 -5.54460347057914 -4.815015470130129
1.4722903881712333 -4.6392651752238185 -4.846984802892742
0.5319482556393075 -4.333769844032389 -4.9865975426991636
-0.4754913484289441 -4.3624282183438465 -5.1022496780929645
-1.4881472480746385 -4.404928253431786 -5.142723913823816
-2.498143832565086 -4.431038077285691 -5.058057769198095
-3.468243307048185 -4.5026548069926315 -4.776418237155996
-4.327278133267188 -4.6880145859037 -4.273771601174777
-5.0459808157705375 -4.9746945071871975 -3.6189310228701244
-5.65979481651018 -5.280356954517307 -2.8714451395744787
-6.166499222616631 -5.404003022090073 -2.0035582133856384
-6.2144261526069275 -4.7734635532068594 -1.2690651496378988
-5.885670144084491 -3.845134966501213 -1.037412274214623
-5.451000204775392 -2.9305301006997238 -1.0636417205815107
-4.934347008387491 -2.103771530688493 -1.3339497122746213
-4.333959724029246 -1.5070800540458447 -1.8839802520583393
-3.678785356587715 -1.2334093582245846 -2.6050798313888226
-2.9673629847745313 -1.1584988692244895 -3.3237142040468526
-2.1666871604692295 -1.147045983142948 -3.9454124871104486
-1.248138120048707 -1.1152770466351145 -4.368686940843128
-0.2562291459947984 -0.963347932589071 -4.366022240166732
0.5180050659604883 -0.6479187620736696 -3.8073985215637496
0.999163373426986 -0.2838342561698576 -2.9939373903991746
1.3142348120959804 0.04904458267115542 -2.089318934122356
1.4527673390385452 0.2648610875164158 -1.1082852715527214
0.9620727388009495 0.15305543863644305 -0.27741818783978633
0.0 0.0 0.0
-0.9981194674855807 0.02295582380972917 0.1763808605939686
-1.9670301248310342 0.21146890792829484 0.4063008197539547
-2.8296954592393027 0.5993499064064757 0.7640307225498958
-3.3002729401931705 1.2885984274795215 1.314064972377363
-3.2480353418324883 2.0791152221205036 1.9435333293602233
-3.0212118915426025 2.7936703097671276 2.6264535555048183
-2.786402450643134 3.389495879545596 3.411991325883206
-2.5819379019291966 3.8060862670157625 4.312472198716982
-2.3577296095796743 3.998880859593486 5.281292042257185
-2.027498699451734 3.982452105679355 6.2387704136950415
-1.5502394179918382 3.8094070047317814 7.115621418280818
-0.9530409539184911 3.5303867347958753 7.885925024179956
-0.2919537656203075 3.1756043110785783 8.568498835449589
0.38441332091799824 2.7626394506979155 9.201900959717596
1.0507225984947894 2.308997857319009 9.818033362057339
1.7065156059517663 1.8319726420594016 10.427712722797976
2.3559890723952353 1.3400490077086238 11.032395058401866
2.9908021216790215 0.8406601797094209 11.646403879233993
3.5841859864678995 0.35795028643614013 12.312401626861183
4.077070165312457 -0.03820630069335646 13.103260486241536
4.349290034644425 -0.186603107197709 14.06218395793311
4.324446080088172 0.06116264598596215 15.038837473411485
4.124890518323998 0.6230708191949292 15.855876115907023
3.858543510295068 1.3832870943718423 16.46931425130291
3.537544380920307 2.269240262584975 16.838332160578247
3.1029107520948016 3.179700323115998 16.884972233261312
2.501678849149529 3.9303771234695373 16.578667151301076
1.789729515295177 4.4479993827037685 16.076948306234694
1.0219784812314867 4.856073796943313 15.554271270366604
0.2180439554897121 5.304489034344476 15.132061547835644
-0.5610415743492625 5.90999757262525 14.940088390869684
-1.2055557752834862 6.690819502196523 15.049911924808677
LINES 1 65
64 0 1 2 3 4 5 6 7 8 9 10 11 12 13 14 15 16 17 18 19 20 21 22 23 24 25 26 27 28 29 30 31 32 33 34 35 36 37 38 39 40 41 42 43 44 45 46 47 48 49 50 51 52 53 54 55 56 57 58 59 60 61 62 63
POINT_DATA 64
SCALARS MaximumInscribedSphereRadius float
LOOKUP_TABLE default
1.1160000562667847
1.243499994277954
1.254639983177185
1.541890025138855
1.94405996799469
1.3906999826431274
1.1448500156402588
1.737529993057251
1.8057199716567993
1.9219800233840942
1.8550599813461304
2.0599799156188965
2.0411200523376465
1.7976700067520142
1.6334500312805176
1.9036799669265747
2.084820032119751
2.470750093460083
2.466520071029663
2.2606699466705322
1.9969700574874878
1.9853700399398804
2.1164801120758057
1.8857100009918213
1.9332599639892578
2.1048998832702637
2.1700000762939453
2.434299945831299
2.677069902420044
2.257230043411255
2.512120008468628
2.7365500926971436
2.425839900970459
2.393399953842163
2.212709903717041
1.9736599922180176
2.1881000995635986
2.446729898452759
2.6930599212646484
2.173029899597168
1.5534199476242065
1.5499999523162842
1.5729299783706665
1.7731599807739258
2.017319917678833
2.194000005722046
2.287839889526367
2.4160099029541016
2.073009967803955
2.1618399620056152
2.4944000244140625
2.4538300037384033
2.203279972076416
2.1850199699401855
1.9767199754714966
2.103060007095337
2.2895898818969727
1.917330026626587
2.2219998836517334
2.206439971923828
2.8354899883270264
2.9453399181365967
2.805269956588745
3.2363998889923096
