# vtk DataFile Version 2.0
Vessel Segment
ASCII
DATASET POLYDATA
POINTS 64 float
-3.431897106592309 -14.951855771798792 -0.9906319892856212
-2.7166140398635696 -14.757235783912545 -1.7244527616911836
-2.0429837526155725 -14.54486968099389 -2.412690695930813
-1.3715264247484569 -14.227215253700374 -3.102182226851702
-0.7568193556852293 -13.731614932369116 -3.7378767148699543
-0.2543473089782739 -13.018292454210538 -4.2517729868739
0.1190875998252135 -12.146655145201422 -4.609790767229579
0.40497075169958624 -11.206071003968296 -4.859866456010707
0.638988783402486 -10.245801320994916 -5.088812490755039
0.7842756102135636 -9.286459581505662 -5.383481220166469
0.6832184045760641 -8.35961698067316 -5.775767856645056
0.24281847948357796 -7.531039179489096 -6.15524343875068
-0.40731392170097597 -6.794162816376294 -6.403361815664609
-1.1596010799380247 -6.1188743624739645 -6.476926158119616
-1.9727386613075664 -5.525695406692532 -6.358717113287295
-2.8312319811193922 -5.07491844227664 -6.064254817796581
-3.7203228944288185 -4.827005378708202 -5.646033281174006
-4.598348849776918 -4.815095721441519 -5.147187978632125
-5.333589616355515 -5.063998867509752 -4.506672491882662
-4.90372457353477 -5.271562803101251 -3.7179380969415443
-3.9507431470829997 -5.170734592124413 -3.3561809943936063
-2.965492568281907 -5.0955703729667325 -3.120273488059734
-1.9638451035040907 -5.112947364986341 -2.9631748555206516
-0.9603869839657174 -5.201806942795278 -2.842887800136598
0.03655660080337277 -5.201597761697711 -2.6612514969199084
0.907404371716607 -4.847743481351179 -2.2999915901476506
1.4451119293361676 -4.1446726908732545 -1.8127172624609909
1.6600156030290016 -3.290576296013796 -1.3132622298732608
1.594064912677518 -2.388878205664299 -0.8569003603063767
1.253961343047762 -1.5096574279862038 -0.4871178619484002
0.6868565331442436 -0.7133983685544222 -0.2200386894679028
0.0 0.0 0.0
-0.6980641147965835 0.6786859472489647 0.2842563012020114
-1.2920591920186553 1.3441164549047135 0.7631990039817796
-1.6560574943445412 1.9258233024100415 1.505480953969825
-1.761708267754703 2.3109581231314773 2.435155197502253
-1.679281430001103 2.4468285380013968 3.435169084042078
-1.4880183228738397 2.3329659758798718 4.423557568765699
-1.2585714443088365 2.004229737947319 5.354589216640654
-1.0507956744955165 1.5185842456144085 6.220306906810403
-0.9038896383404658 0.9396332576607553 7.040168705188707
-0.8186773926166705 0.3179020281594376 7.837325111914193
-0.7546923952665804 -0.3191878808183469 8.624391477125913
-0.6519003226978065 -0.9558640490882425 9.407498465906702
-0.45196039047467323 -1.5609943745202475 10.196461571894389
-0.12032807721997836 -2.066677851074718 11.009951651405208
0.3218405634106005 -2.3878131998068333 11.863258243250302
0.7993522242093185 -2.4793331465218933 12.752360525564988
1.2321206419386515 -2.3428978297506804 13.658436866716137
1.5578449696066812 -1.980597397497378 14.546541093756137
1.742401217914205 -1.3949402169121732 15.351904105649268
1.8183468009480708 -0.6335873519343233 16.01669146101054
1.8690734285536257 0.23713883976852995 16.53372339922032
1.968632378651826 1.172554887565136 16.912240116979664
2.143669992783361 2.1435218701288807 17.146230960552867
2.3546233881922682 3.132119846312227 17.226866473648684
2.4935040186398068 4.134854223281684 17.170206172298965
2.419396178620664 5.136803204986606 17.04210714983353
2.0711709615010325 6.0839908139887005 16.958283236284668
1.5272383817766326 6.937699450182733 17.00826171754274
0.8964462755133009 7.705422495396973 17.212423646666657
0.2555206396881239 8.41571693228424 17.547287044211537
-0.3329288770301576 9.087178912519095 17.967225638769353
-0.8448836407836317 9.830745167824972 18.488308946186336
LINES 1 65
64 0 1 2 3 4 5 6 7 8 9 10 11 12 13 14 15 16 17 18 19 20 21 22 23 24 25 26 27 28 29 30 31 32 33 34 35 36 37 38 39 40 41 42 43 44 45 46 47 48 49 50 51 52 53 54 55 56 57 58 59 60 61 62 63
POINT_DATA 64
SCALARS MaximumInscribedSphereRadius float
LOOKUP_TABLE default
1.5499999523162842
1.3705799579620361
1.2890000343322754
1.4871200323104858
1.6744799613952637
1.8287800550460815
1.8746299743652344
1.8395700454711914
1.7048300504684448
1.4702500104904175
1.4228099584579468
1.7285399436950684
1.475160002708435
1.337049961090088
1.587249994277954
1.9670300483703613
2.372760057449341
1.7882800102233887
1.3918800354003906
1.5499999523162842
1.895490050315857
2.38070011138916
2.292840003967285
2.1759400367736816
2.1424400806427
1.9400700330734253
1.9943699836730957
2.1518900394439697
2.1700000762939453
1.9479600191116333
1.4493199586868286
1.3598899841308594
1.5712100267410278
1.9333800077438354
2.253200054168701
2.4495699405670166
2.3210198879241943
2.2288200855255127
2.401740074157715
2.3979101181030273
2.225369930267334
2.1816298961639404
2.190609931945801
2.1787900924682617
2.248729944229126
2.4439098834991455
2.3160200119018555
2.1763999462127686
2.1804699897766113
2.326230049133301
2.530210018157959
2.7019600868225098
2.4612200260162354
1.9267100095748901
2.1828999519348145
2.427839994430542
2.2442400455474854
2.8285300731658936
3.530709981918335
3.299329996109009
3.0999999046325684
3.0999999046325684
2.8590800762176514
2.4800000190734863
