# vtk DataFile Version 2.0
Vessel Segment
ASCII
DATASET POLYDATA
POINTS 64 float
-3.003528034745832 -14.478038747653194 -1.5625701757016977
-2.3003424639155883 -13.91219543067409 -2.0945721824348227
-1.7143439623507146 -13.402582291608148 -2.680057028636614
-1.1533401818772584 -12.84614945907739 -3.3324426211981857
-0.6609683566095741 -12.241805532171451 -3.9797482977583343
-0.23161599497524052 -11.543375769302068 -4.576838985611143
0.12270382703457364 -10.725497950655408 -5.060261085647621
0.38575054318947316 -9.8017805756754 -5.385113589851106
0.5438721039472605 -8.817004137445487 -5.5692161812884615
0.5783865312698543 -7.809741340099819 -5.683805502051221
0.45453433686430283 -6.812039276330273 -5.816738810197749
0.13634477367727893 -5.875631114152027 -6.038563602633882
-0.36529100487662713 -5.049909438176167 -6.3462030212010765
-1.0028318690953018 -4.335071685004899 -6.679843623891586
-1.7381353759669842 -3.7045827999304577 -6.981100389705097
-2.549213047069039 -3.138610005531706 -7.2064406890465875
-3.420291217930442 -2.6322467542135706 -7.322994577808768
-4.333107002848236 -2.190643184442024 -7.303978497109977
-5.261178961993959 -1.8238990918266225 -7.1238635154049
-6.1625195740810215 -1.5442961956670187 -6.753122597409151
-6.952425413810292 -1.3683643460125554 -6.143700833327543
-7.376153118296423 -1.3319074059002756 -5.233448940067939
-7.060100666102924 -1.4317860363880153 -4.287718954015326
-6.27775069922343 -1.5542463302418075 -3.6522145786720057
-5.356438476231685 -1.6486740582357062 -3.239299649980757
-4.386306526097468 -1.7056247300329617 -2.9483625192090646
-3.400095720992488 -1.7127160979020102 -2.710229167702954
-2.420639717926727 -1.6458951213487423 -2.454853244878627
-1.4943991864129385 -1.4593438280983704 -2.087380785415715
-0.7405435325877975 -1.1014857289207387 -1.5151089252834138
-0.2639954191760119 -0.5936842796918497 -0.778936232462099
0.0 0.0 0.0
0.1534995790254874 0.6521183103686605 0.7617774799969672
0.25496523971200624 1.3548229979944129 1.4865635582434775
0.3309791011784206 2.1016643739304013 2.168930939623885
0.38641293476397987 2.8835851608064056 2.81312119651594
0.4118571516719531 3.686658965044489 3.4325187189642943
0.39194303079295667 4.492507469557348 4.048661918863123
0.3162308938447684 5.275840455475958 4.688899935819513
0.18498153687797095 6.005360769670186 5.381482895401942
0.009061356930750187 6.642935766146905 6.150460656229822
-0.19182079810858987 7.14265428942407 7.009708549635971
-0.3896584896007966 7.454276472910419 7.953988806927055
-0.5509290112935271 7.541212434532764 8.950999526776899
-0.6461635865869424 7.40911010681735 9.951729601951499
-0.6593534999552014 7.104724112113022 10.919037778859082
-0.5864899630446144 6.683744722302447 11.83901393383363
-0.4306680013077665 6.187897907687731 12.710184053238295
-0.20349677178140316 5.638307104073554 13.532079959484946
0.07077697305554947 5.036895724232095 14.301677655902983
0.35676862654121866 4.380577631206451 15.020480388734802
0.6209249816918597 3.6786841777756063 15.703864840154983
0.8443013566407239 2.958398822703068 16.382519859002926
1.0280262656803472 2.262641255372249 17.097664363761524
1.1841559060728744 1.6508315282013126 17.891416203085036
1.3235069214918107 1.2037282052925813 18.79047650245167
1.4480463136217996 1.0216217774643601 19.779179797012212
1.5504549747120762 1.1700794363001927 20.77577540870743
1.626099507768019 1.6129306664148428 21.684254700698226
1.6824116482195985 2.2524588074909744 22.469269373468986
1.735895007519598 3.0039568898034803 23.14712224847556
1.8212680461464155 3.81604836738063 23.762311385596565
1.9445293169533355 4.615963938519646 24.31481561291516
2.3860924822462906 5.263403925717736 25.002858664878534
LINES 1 65
64 0 1 2 3 4 5 6 7 8 9 10 11 12 13 14 15 16 17 18 19 20 21 22 23 24 25 26 27 28 29 30 31 32 33 34 35 36 37 38 39 40 41 42 43 44 45 46 47 48 49 50 51 52 53 54 55 56 57 58 59 60 61 62 63
POINT_DATA 64
SCALARS MaximumInscribedSphereRadius float
LOOKUP_TABLE default
0.9300000071525574
0.9300000071525574
0.9814440011978149
1.1476800441741943
1.220289945602417
1.0550899505615234
0.9796000123023987
0.9742460250854492
0.9474769830703735
0.9300000071525574
0.9477249979972839
1.0404200553894043
1.2824000120162964
1.670639991760254
1.8313100337982178
1.8561999797821045
1.8600000143051147
1.794010043144226
1.4867299795150757
1.2636200189590454
1.2640199661254883
1.7397300004959106
1.7897100448608398
1.664039969444275
1.8235599994659424
1.7337599992752075
1.6214699745178223
1.7430299520492554
1.7697099447250366
1.5894999504089355
1.5499999523162842
1.6579099893569946
1.8214999437332153
1.8600000143051147
1.823889970779419
1.6822999715805054
1.6637500524520874
2.175489902496338
2.3069000244140625
1.9989999532699585
1.9640100002288818
2.0953800678253174
2.016479969024658
1.907920002937317
2.0882699489593506
2.276210069656372
2.4486498832702637
2.2184700965881348
1.912310004234314
2.0597798824310303
2.2473599910736084
2.4310100078582764
2.4800000190734863
2.4163999557495117
2.138079881668091
1.8198200464248657
1.6537400484085083
1.7832499742507935
2.1261401176452637
2.3282899856567383
2.4663000106811523
2.4800000190734863
2.4800000190734863
2.4800000190734863
