# vtk DataFile Version 2.0
Vessel Segment
ASCII
DATASET POLYDATA
POINTS 64 float
-4.825813180332584 -17.653688868732267 -0.3614740458261307
-3.9326525282510345 -17.475400920044816 -0.866617346316832
-3.225640594900396 -17.304769926797665 -1.5207794004204147
-2.587795056305565 -17.072746537357474 -2.2904693020154854
-2.044671778394952 -16.736386370975882 -3.0748162245018
-1.54496602925407 -16.247703759462972 -3.810484905619846
-1.0755441728855442 -15.598874664469754 -4.432567165498068
-0.6337524014028048 -14.82253169400423 -4.913065519692159
-0.22880721730930192 -13.962377052208494 -5.266907494503189
0.11403192226325812 -13.044385182478894 -5.529124401741294
0.3264908421345758 -12.075019611238263 -5.740856557380788
0.24988101869625334 -11.085356164833438 -5.943805065320126
-0.2174867064275815 -10.212869654740393 -6.154428712060702
-0.9212220262395445 -9.513512587779399 -6.3659171511174675
-1.7008676692498732 -8.899354417867897 -6.576182996188675
-2.4825793383574304 -8.286249343767933 -6.784775931777128
-3.205503685245763 -7.608023899066186 -6.987994744591181
-3.764362537721522 -6.774058932915411 -7.1766426611025915
-3.675693571474605 -5.784182985768179 -7.2787947857705095
-2.8946082812801683 -5.146352143295482 -7.2351858018973765
-1.9484258234711667 -4.804722902312671 -7.113993248851646
-0.971734587689283 -4.604400102300693 -6.923054942732568
-0.011388864094571778 -4.473486820414717 -6.625728859985966
0.8674625115049335 -4.351452535388729 -6.13197017632747
1.4400956802598823 -4.1392816507772245 -5.327322665224073
1.5137542961905484 -3.789909725809131 -4.380857601495919
1.3039574087665509 -3.3503515561783908 -3.4912963918946547
1.0001423370475673 -2.839062197291075 -2.6693037742492525
0.6819636155076675 -2.252349954795351 -1.905303862630076
0.39258047380963484 -1.5830245395558837 -1.2000042469182175
0.16053574825315772 -0.8288152111059187 -0.5625649383627189
0.0 0.0 0.0
-0.09299994014403541 0.8796773945674493 0.49683581332959226
-0.13892865955007883 1.7797868660130851 0.962692082152546
-0.1673000499140357 2.6653976973466436 1.4569833418637468
-0.21144112678238816 3.482666081441677 2.05621437787587
-0.300775584920812 4.146126752804264 2.8173985725609283
-0.4433381545400782 4.579036730422485 3.7229021107998723
-0.6238978603749936 4.7737167684536415 4.701609671687359
-0.8192552230268471 4.77787429356817 5.696947034714603
-1.0100110315943758 4.642062819142351 6.684004292583488
-1.181853447309589 4.400938718898216 7.654351342558277
-1.3236894895195326 4.07892672231144 8.605889926731738
-1.4269801120179162 3.6972846891725992 9.540281127374694
-1.485579054260189 3.2790115206493735 10.462745530965654
-1.4942291079485805 2.8475524616577634 11.380990892152116
-1.4494966327093637 2.4236665430854107 12.301660021701457
-1.3541399070394011 2.02133445003335 13.228128186818175
-1.2224368105402066 1.6496301321684452 14.163000788921023
-1.0770863189626925 1.3176167396781413 15.11057370403765
-0.940852723570176 1.0369857620862915 16.075997454664822
-0.8300705125265697 0.8236331638569329 17.06168345085442
-0.7502368276358351 0.6977159290511952 18.06513677891316
-0.6921851653171796 0.6883116960661654 19.077924776819714
-0.6239676576668547 0.8456846779693008 20.07716321500498
-0.4647679832911338 1.2720112169572497 20.984509556791394
-0.0950287583508335 2.0240999427339164 21.54537851108076
0.4379744331012628 2.8788906275675656 21.65475092265933
1.029957839442563 3.693867413350228 21.53627535686035
1.6540691168608013 4.473525354832917 21.3556098479861
2.308032413356763 5.232681273126036 21.206407741065455
3.0060264958676175 5.979176631079449 21.204898413582463
3.6900967951550765 6.643044391069531 21.446189721531876
4.3030867606890935 7.1324327134230705 22.127891909106527
LINES 1 65
64 0 1 2 3 4 5 6 7 8 9 10 11 12 13 14 15 16 17 18 19 20 21 22 23 24 25 26 27 28 29 30 31 32 33 34 35 36 37 38 39 40 41 42 43 44 45 46 47 48 49 50 51 52 53 54 55 56 57 58 59 60 61 62 63
POINT_DATA 64
SCALARS MaximumInscribedSphereRadius float
LOOKUP_TABLE default
0.6200000047683716
0.778410017490387
0.9081599712371826
0.9300000071525574
0.9934710264205933
1.1491299867630005
1.405150055885315
1.7083100080490112
1.661460041999817
1.3643900156021118
1.2400000095367432
1.2400000095367432
1.2400000095367432
1.46343994140625
1.7873400449752808
2.101490020751953
2.3289899826049805
2.115370035171509
2.015510082244873
2.1700000762939453
2.160249948501587
2.0197598934173584
1.6992900371551514
1.805400013923645
2.074470043182373
1.9308500289916992
2.0583600997924805
2.355180025100708
2.574130058288574
2.7297699451446533
2.5548601150512695
2.1115100383758545
1.8600000143051147
1.8773200511932373
2.078089952468872
2.4444899559020996
2.098099946975708
1.4925999641418457
1.8286700248718262
2.2216899394989014
2.5356500148773193
2.60617995262146
2.238070011138916
1.9163899421691895
1.9230300188064575
2.1081299781799316
2.5634799003601074
2.90054988861084
3.087369918823242
2.850369930267334
2.3649098873138428
2.0853500366210938
1.9499900341033936
1.8615299463272095
1.807569980621338
1.6698999404907227
1.9178600311279297
2.634399890899658
2.6559500694274902
2.502269983291626
2.3503100872039795
2.207789897918701
2.1700000762939453
2.1700000762939453
