# vtk DataFile Version 2.0
Vessel Segment
ASCII
DATASET POLYDATA
POINTS 64 float
-8.633703881444383 -16.393720951677288 0.6768015572945622
-7.6871007768230974 -15.966206541487935 0.7597965217742605
-6.761952050406002 -15.623658654434358 0.8067887881773231
-5.802462669559272 -15.29717732174197 0.8175137211822459
-4.847750775899767 -14.953968652020146 0.7867477694937163
-3.9168970871392794 -14.555777050786117 0.7222410061748313
-3.0142581639703203 -14.099829224101018 0.6407789840153326
-2.125234936200836 -13.618455628074289 0.5552001629425336
-1.2357457434073822 -13.138081198399961 0.46871101884021626
-0.3499569302375654 -12.651897600509226 0.3770194724157943
0.5033850609849767 -12.11393862898384 0.270550823717646
1.2566989381130231 -11.44822349105128 0.142261738093207
1.8023564939202645 -10.606023112304879 0.009613163452535326
2.1130153002835534 -9.645536066717098 -0.0827256483379962
2.3091443554335274 -8.650766660086981 -0.11755115468581744
2.503039455260046 -7.655029714334919 -0.1343843396183539
2.7186602452894344 -6.669279811632097 -0.23588182737018043
2.8829002208456322 -5.724015754060086 -0.5587727148127598
2.8928325451377543 -4.886072710750504 -1.1269014476734152
2.7147685321737525 -4.169755167585769 -1.8214350058146886
2.333089631371055 -3.5416845614096357 -2.518925170684595
1.6741451526477897 -3.0063091945741776 -3.0662833446702247
0.7413854033398299 -2.667542725681618 -3.240845733412295
-0.2509385802235577 -2.52994137050567 -3.086584089100051
-1.223282814758214 -2.4533152500028277 -2.8077557583529247
-2.172730780781766 -2.3163763594094533 -2.4786318116957213
-3.0149893410976296 -1.9610972345844668 -2.038792204628844
-3.2080845917050547 -1.3138403297881116 -1.3219818476598415
-2.7033442328585187 -0.7986932005264605 -0.6139203551664313
-1.9337474245263289 -0.4245581262400497 -0.07325344821232092
-0.9911306071981876 -0.1406456856566279 0.15042615085060201
0.0 0.0 0.0
0.9868960942415539 -0.08251633945232939 -0.2128801882550746
1.9492329689526464 -0.39128372016943563 -0.19525089886177324
2.7782933413474713 -0.8329014196163218 0.17812881113496332
3.3794325316539484 -1.272587399858376 0.8621582237106226
3.6589875339794244 -1.599217057668879 1.775509739574148
3.431094302161129 -1.676854091172263 2.7481021194453676
2.719924730303656 -1.4550193484711667 3.42788528729703
1.8754547056362942 -1.0784193428352165 3.844132942047366
1.0638904901491923 -0.6193949358420604 4.243105561661432
0.4033775187422335 -0.11681017934411095 4.8221231594306415
-0.0037609808844821816 0.3567119401798108 5.6188109181144466
-0.19570212533931125 0.7635296382310042 6.527304210236935
-0.27064208485139535 1.1129979469188889 7.476684092992649
-0.3031843859086613 1.4045790333805257 8.447774355432545
-0.3476483124832825 1.6087951567159187 9.44031821188446
-0.4410290758294804 1.6618052837959072 10.448317834979216
-0.5734886973526617 1.4871939787002615 11.43732127513559
-0.6776383345509336 1.0715089556807262 12.355409567699509
-0.7071509293009037 0.4847783668061606 13.181818769490995
-0.6746932524741813 -0.19774445275845515 13.9314946062519
-0.6161862121401344 -0.9345529971285528 14.62637655605338
-0.5645183619469913 -1.7061343449863078 15.283175965206745
-0.5388676932767793 -2.4949319121897378 15.920739542699755
-0.5442109786129242 -3.2754007933241103 16.568955045574203
-0.583115232156982 -4.015801572379823 17.26128497465393
-0.660687253030414 -4.682654871262483 18.02152737521709
-0.780838264573292 -5.2387293119262 18.860915265321232
-0.9402519467967609 -5.628892834026239 19.782528218008153
-1.121025118138388 -5.746908590958786 20.771259468218688
-1.273134249023171 -5.422914433266426 21.712187122441513
-1.3315511410281449 -4.682649200905617 22.359963298480835
-1.2964365989213782 -3.699307731474338 22.69680849976745
LINES 1 65
64 0 1 2 3 4 5 6 7 8 9 10 11 12 13 14 15 16 17 18 19 20 21 22 23 24 25 26 27 28 29 30 31 32 33 34 35 36 37 38 39 40 41 42 43 44 45 46 47 48 49 50 51 52 53 54 55 56 57 58 59 60 61 62 63
POINT_DATA 64
SCALARS MaximumInscribedSphereRadius float
LOOKUP_TABLE default
0.9300000071525574
1.1398199796676636
1.1211700439453125
0.9511479735374451
0.9300000071525574
0.9300000071525574
0.8106740117073059
0.6947799921035767
0.8485749959945679
0.7790150046348572
0.6831279993057251
0.8719890117645264
0.7434449791908264
1.1549099683761597
1.3882800340652466
1.0051900148391724
1.219939947128296
1.4415299892425537
1.3665599822998047
1.0121500492095947
1.7805099487304688
2.129309892654419
1.9275799989700317
1.5499999523162842
1.55076003074646
1.708840012550354
1.9927599430084229
2.1791601181030273
2.040220022201538
1.8437600135803223
1.9181499481201172
2.127530097961426
1.8743900060653687
1.6565799713134766
1.5646699666976929
1.723479986190796
2.1411499977111816
2.190840005874634
2.1947999000549316
2.232759952545166
1.996649980545044
1.6717499494552612
1.9148399829864502
1.5068399906158447
1.3379199504852295
1.5508300065994263
1.766129970550537
1.8600000143051147
1.6362099647521973
1.1364699602127075
1.6132500171661377
2.0058300495147705
2.057300090789795
1.6217999458312988
1.9328399896621704
2.066459894180298
1.9767500162124634
2.341749906539917
2.5645101070404053
2.6014699935913086
2.3781700134277344
1.7879899740219116
1.6846699714660645
1.8600000143051147
