# vtk DataFile Version 2.0
Vessel Segment
ASCII
DATASET POLYDATA
POINTS 64 float
-2.259734330819342 -15.570600386428824 0.44718914193760556
-1.6309011739152632 -15.27260112952896 -0.31445770600272177
-1.082421488627659 -14.773853344692881 -0.9710041828555663
-0.588054296281298 -14.112208568747864 -1.5759200329911278
-0.18065582903973576 -13.354940725492382 -2.1090372645541087
0.16079278787790777 -12.543029833344718 -2.614128753484474
0.44195403805529104 -11.70840156780758 -3.1174734732822063
0.6650224342177159 -10.873740644403235 -3.6495071169229436
0.8148014711338722 -10.059008179216345 -4.235221631544434
0.8525311963026612 -9.28481458361231 -4.8897315107198
0.7186734273416658 -8.5755737797227 -5.6023988285101405
0.3622906324700429 -7.948570393715397 -6.315448151316165
-0.21491315150318274 -7.403090394932592 -6.946262774003186
-0.9597899531569846 -6.921653925321486 -7.438507322560606
-1.81043190472295 -6.4835403888409004 -7.77543276178152
-2.719213630608501 -6.072830189871482 -7.961368723828519
-3.6530867137210747 -5.678705857367987 -8.00320743787293
-4.585766376971866 -5.292955532657764 -7.900683733956977
-5.487702081405835 -4.908714606328656 -7.639859256714306
-6.307058417689338 -4.519419184210109 -7.186188564036053
-6.914764069896472 -4.1239951014925245 -6.474842916805605
-7.058210937184522 -3.7643261290249592 -5.544002082556943
-6.704812431206911 -3.48875935305949 -4.634379421099031
-6.075402348190269 -3.2717910867340234 -3.8685539400380797
-5.318093815447867 -3.069543003489456 -3.2245372608354193
-4.496739601403202 -2.8520856427704886 -2.6700647385754324
-3.6458978515489178 -2.595869953793384 -2.1804075877881957
-2.791269517736093 -2.2780022297819893 -1.7355187811447008
-1.9603231270381083 -1.8745671954719785 -1.3158804138940203
-1.1887643830011636 -1.3633191372835713 -0.9005557162270802
-0.5216158382433255 -0.7333855656877323 -0.4679801969442499
0.0 0.0 0.0
0.35944887813636184 0.7971115134473179 0.5142442030033203
0.5725898024106578 1.6118427651988927 1.0799108231422643
0.6745340664467351 2.4076446130923363 1.7007966850838345
0.6991123968402196 3.1588510999057298 2.38226973152377
0.6709661703001528 3.843721065404433 3.1302307180474975
0.6079009119361977 4.439328738158083 3.949108736265483
0.523649703718518 4.920066900980956 4.838435309480903
0.42992036410408935 5.262624156383443 5.788744130997262
0.3368519369280721 5.453477877010569 6.780705930054524
0.253105332916723 5.495241242477817 7.7908582598112375
0.18514445979522098 5.40376127694713 8.798974007600158
0.13720622408269503 5.200739896753082 9.791830857806746
0.11142730920373277 4.907990094960212 10.76290185218127
0.10803080252452267 4.543971090235642 11.709924057856442
0.12518435077243092 4.124413480446669 12.633531488880866
0.15932991126572962 3.6632815689684284 13.536643637341307
0.20502668078296088 3.175164857861513 14.424954526276565
0.2561783213981026 2.6759862376551884 15.306794556182066
0.3067571894348256 2.1840915620615644 16.19271335062862
0.3521484097583107 1.7221865402411407 17.09495465059489
0.3896350131978763 1.3177683676846372 18.024685137583468
0.4192900737692866 1.0036354841610702 18.988892375813112
0.4441029220568217 0.8165905310139909 19.985655810442545
0.47022736070304944 0.7924514218011671 20.9994743878666
0.5064130952704046 0.9552444635733061 21.999966176449394
0.5635078910904848 1.3047591032947732 22.950578524889234
0.6522292579399127 1.8137753055467416 23.82338774620868
0.7851462051869021 2.4440040855243943 24.60820788463453
0.9726584921322914 3.1534472808917777 25.3044385503454
1.2480138218042969 3.92066233963953 25.924434545820144
1.6125675526738457 4.676273480056323 26.45046689912219
2.1796782020229353 5.411566433239142 26.900312579667773
LINES 1 65
64 0 1 2 3 4 5 6 7 8 9 10 11 12 13 14 15 16 17 18 19 20 21 22 23 24 25 26 27 28 29 30 31 32 33 34 35 36 37 38 39 40 41 42 43 44 45 46 47 48 49 50 51 52 53 54 55 56 57 58 59 60 61 62 63
POINT_DATA 64
SCALARS MaximumInscribedSphereRadius float
LOOKUP_TABLE default
0.6200000047683716
0.9598270058631897
1.205970048904419
1.0705699920654297
1.0654699802398682
1.2541199922561646
1.5152699947357178
1.657960057258606
1.448349952697754
1.395009994506836
1.4903099536895752
1.376829981803894
1.4118599891662598
1.5464400053024292
1.5499999523162842
1.522570013999939
1.3663500547409058
1.3431400060653687
1.6360900402069092
1.7897100448608398
1.6958400011062622
1.609879970550537
1.5707999467849731
1.5736199617385864
1.722540020942688
1.8600000143051147
1.8600000143051147
1.8600000143051147
1.85548996925354
1.7930099964141846
1.684939980506897
1.8327300548553467
2.051959991455078
1.988569974899292
1.9414399862289429
2.067539930343628
2.0897998809814453
1.9426300525665283
1.9446300268173218
2.086319923400879
1.9430299997329712
1.6974300146102905
1.8283100128173828
2.019700050354004
1.855049967765808
1.6149100065231323
1.5499999523162842
1.6462199687957764
1.9348000288009644
2.182729959487915
2.2346599102020264
2.2418999671936035
2.1974499225616455
2.1763699054718018
2.1875200271606445
2.1851398944854736
2.1737399101257324
2.1700000762939453
2.226759910583496
2.3717799186706543
2.389930009841919
2.2436299324035645
2.1829299926757812
2.1947999000549316
