# vtk DataFile Version 2.0
Vessel Segment
ASCII
DATASET POLYDATA
POINTS 64 float
-8.710649177217936 -8.727776390813652 -3.97077337911545
-8.41749783309338 -8.88359313232095 -4.960020992757468
-7.803233029188372 -9.139203196240432 -5.6767106315213685
-6.964701285436596 -9.439358182687517 -6.175684289163478
-6.019608275126519 -9.718519526951074 -6.410508560317702
-5.029007481552024 -9.93423046266739 -6.430536975036235
-4.037071240491693 -10.040705807446221 -6.249653211276762
-3.095703843970619 -9.979180503915252 -5.8790267630108675
-2.2713656817027443 -9.700581780360132 -5.3596379915747505
-1.5998179155911298 -9.21386856520031 -4.776440257499569
-1.0428625759971442 -8.585305998460045 -4.2074574708078725
-0.5180225771895748 -7.8902472880696255 -3.6870783813295716
0.05241511039757466 -7.1898545288054985 -3.225332777455863
0.7103637565406732 -6.52148948693164 -2.838950271368841
1.4565210044985608 -5.894038533058436 -2.5590106040139897
2.2609230021485702 -5.2912493883664995 -2.423799936665409
3.0709426091231586 -4.682721659855274 -2.468631796132
3.8150470448679843 -4.0373718484803005 -2.7090816449836237
4.411674713060475 -3.331491143812126 -3.1257448626619357
4.774652313852641 -2.552445282697375 -3.6627778482467805
4.804912566624425 -1.7140332398982379 -4.229881609221777
4.447609207049476 -0.8906556665302813 -4.697714830721711
3.780539361702708 -0.17702569589553036 -4.965899867079077
2.94637755043853 0.3963117596953073 -5.0248948758623175
2.046160410452487 0.8467785605755842 -4.902220054909969
1.1379513014737785 1.1892443984016063 -4.608519714007468
0.2749545513352247 1.4184521811978115 -4.128327869177728
-0.4493602329755413 1.4957439553477359 -3.4236277449238663
-0.8485921194887603 1.3485560732948394 -2.5073549109726136
-0.8140060178295496 0.9850566955577817 -1.5636147802027722
-0.4835885536032873 0.5119095899035141 -0.7301102110663834
0.0 0.0 0.0
0.5669148708257948 -0.5142142540808455 0.6659276289991691
1.1850235409813363 -0.9978750057029844 1.3088478534603243
1.8380627850165394 -1.4016672834416588 1.9718246399537145
2.509121241188356 -1.642728331229153 2.692731500603773
3.1619040778717538 -1.6237305549760839 3.467468846839008
3.7497653724570856 -1.3216286882880794 4.235972216768294
4.248622689867517 -0.7992807852893975 4.947758976847517
4.648405478110043 -0.12183041642490355 5.587896365287991
4.933525311127407 0.6685093160394419 6.155936795480193
5.082775994395555 1.5396543181638147 6.653477572033545
5.081309708968002 2.4581427065307038 7.0836429164941705
4.93136243270762 3.3885623972520547 7.458744790051784
4.648431806214477 4.2992516755830925 7.804545724691737
4.250575161941556 5.161804029113061 8.16047962918947
3.7527371233425413 5.939994598192033 8.579332253981287
3.1746247399542926 6.571807429081249 9.121977419447434
2.5607620433525318 6.975807011033323 9.819669209325806
1.9688909155749363 7.121463788956805 10.629681229369178
1.4234381765571824 7.056975041877309 11.482274006251702
0.9154117838300607 6.845943451676805 12.334570361885037
0.4270970695633388 6.531871606623224 13.16648813491756
-0.05646940781226276 6.140528674296367 13.967943523022507
-0.5449845849666318 5.68907281045 14.733983664179119
-1.039754959658328 5.19366656915132 15.468259786956738
-1.5350689423966293 4.673341180676172 16.18474517678144
-2.020205485842259 4.150518130181744 16.906343254893617
-2.48105428668704 3.6487885564176206 17.658149858745983
-2.9000289524674727 3.1903890829165085 18.460611913744028
-3.2555194802653635 2.7947842338770066 19.32208666271514
-3.5206445360777843 2.479729534854235 20.261407637966958
-3.672723999158352 2.2655588267060716 21.19939269202428
-3.686385806001767 2.154202280851372 22.238772898091717
LINES 1 65
64 0 1 2 3 4 5 6 7 8 9 10 11 12 13 14 15 16 17 18 19 20 21 22 23 24 25 26 27 28 29 30 31 32 33 34 35 36 37 38 39 40 41 42 43 44 45 46 47 48 49 50 51 52 53 54 55 56 57 58 59 60 61 62 63
POINT_DATA 64
SCALARS MaximumInscribedSphereRadius float
LOOKUP_TABLE default
1.1160000562667847
0.8639780282974243
0.7566199898719788
0.8692629933357239
0.7523339986801147
0.6921600103378296
0.90699702501297
1.1318600177764893
0.9678500294685364
0.7294750213623047
0.9233260154724121
1.1615999937057495
1.2771999835968018
1.3379499912261963
1.508929967880249
1.6622600555419922
1.7546000480651855
1.7844599485397339
1.9099500179290771
1.8869600296020508
1.6860300302505493
1.378159999847412
1.2771999835968018
1.3973900079727173
1.6644699573516846
1.7186299562454224
1.6109700202941895
1.3456599712371826
1.2604399919509888
1.2256799936294556
1.1448099613189697
1.2224199771881104
1.3094700574874878
1.370650053024292
1.216729998588562
1.1667399406433105
1.2337700128555298
1.2400000095367432
1.2400000095367432
1.365440011024475
1.492050051689148
1.33010995388031
1.5666500329971313
2.098020076751709
1.6238000392913818
1.389359951019287
1.7445900440216064
1.8600000143051147
1.755139946937561
1.5797499418258667
1.558840036392212
1.5499999523162842
1.5054199695587158
1.2819299697875977
1.2153899669647217
1.4159799814224243
1.255810022354126
1.0278700590133667
1.1632499694824219
1.2400000095367432
1.2456899881362915
1.2667900323867798
1.2625600099563599
1.2400000095367432
