# vtk DataFile Version 2.0
Vessel Segment
ASCII
DATASET POLYDATA
POINTS 64 float
-8.091330688716504 -13.425915764948563 -2.705095222012106
-7.2131547227629165 -13.226463253353414 -3.2019304429919226
-6.324997150802375 -13.06281495445488 -3.61751192111719
-5.390096122628443 -12.88493756699902 -3.99412517350348
-4.453315725425108 -12.672143229449656 -4.310976033394393
-3.5122366310187223 -12.389659035340935 -4.567519537060902
-2.590069119068656 -12.00463295054863 -4.740924586602687
-1.7192254934419338 -11.488325013179212 -4.805014712261365
-0.9429986494488901 -10.838120481934064 -4.746306016165444
-0.28656936805965944 -10.08085208399404 -4.588666575871581
0.25588718197066485 -9.246875219512997 -4.3896967436887335
0.699792559057917 -8.349746312960727 -4.223550471032778
1.0437885763961379 -7.397098074740983 -4.167665289923634
1.269119738983986 -6.412189851667629 -4.257415225457731
1.3646617899030467 -5.422429513519993 -4.458438664186096
1.331250191221116 -4.435733374901823 -4.692343152160289
1.1546816897087715 -3.453222914909392 -4.872781413780325
0.7973792609393061 -2.505718149916124 -4.930348667852832
0.23529251276845917 -1.6661533118545377 -4.841973915626604
-0.49500043074550165 -0.9892618292294397 -4.648326825449377
-1.3260683812573024 -0.4606775329241261 -4.404577940733721
-2.206057918127689 -0.03276365920629826 -4.139358085476964
-3.112251639383569 0.3390798263880535 -3.861252067588627
-3.994658920611151 0.6942489387851449 -3.5563439147372122
-4.932107393851657 1.0947926523560725 -3.2090533691238825
-5.10150294646419 1.6420513616245058 -2.548496225650493
-4.237045114867013 1.770630191026334 -2.0397531044385353
-3.2869094392447487 1.5698874273452976 -1.7237853755086046
-2.3824656002548865 1.267409061569795 -1.382190068300286
-1.5263100310894373 0.8771860066908266 -1.001959372615634
-0.730770661494061 0.43813999599489656 -0.5506787205672489
0.0 0.0 0.0
0.668650208241658 -0.3496492932556121 0.6781161876925403
1.2765567363595611 -0.4720299471770675 1.4799301146990198
1.813948100818907 -0.27603864056445504 2.3175294469411414
2.282317024069701 0.16010493638720538 3.104891551735779
2.6967368196456083 0.7155567451111532 3.845788053281219
3.061322572960792 1.3206738092587536 4.57410810229689
3.3669243787975414 1.9378829804927253 5.319036280276586
3.5950162572645623 2.5451178421275777 6.09923582224633
3.7255474533157926 3.125400721354525 6.921083765424378
3.7479610572016466 3.665546712073367 7.779549116385451
3.671486241371524 4.157304106110339 8.663613497730188
3.5184681567018363 4.595127123870915 9.566026532078407
3.309805391099285 4.969379574505068 10.48569355583241
3.0579068849163136 5.264398218002513 11.423102451598346
2.7664611649622084 5.4602164991042805 12.375004741615506
2.4339222750561675 5.537891526971087 13.33030752670313
2.0585988453220474 5.488480552161834 14.271570324522443
1.6435480641229565 5.3165723565557395 15.181210822339773
1.1981435294495502 5.038174394250543 16.049206675142198
0.7375921246913064 4.673202389896347 16.876257044271995
0.2821685465426349 4.240393705957359 17.67290559286902
-0.14476936019313283 3.755452555331647 18.455181652263544
-0.5199337651254655 3.2320871931284993 19.239218449603158
-0.8241494803197936 2.6842859176174088 20.03719959034837
-1.0447088390870853 2.126452325979699 20.85539715093507
-1.1758939493452303 1.5726870367319055 21.695436076688885
-1.220688890115081 1.0360705219667623 22.555012825899585
-1.191355886287816 0.5295960256088776 23.434652634420658
-1.1089257214407664 0.06883333651702198 24.331449058492076
-1.000633584941161 -0.3301277685598932 25.26755571262275
-0.9000666816961511 -0.6395344250516237 26.207060140555065
-0.8416594675560701 -0.8426247558879106 27.21358741507761
LINES 1 65
64 0 1 2 3 4 5 6 7 8 9 10 11 12 13 14 15 16 17 18 19 20 21 22 23 24 25 26 27 28 29 30 31 32 33 34 35 36 37 38 39 40 41 42 43 44 45 46 47 48 49 50 51 52 53 54 55 56 57 58 59 60 61 62 63
POINT_DATA 64
SCALARS MaximumInscribedSphereRadius float
LOOKUP_TABLE default
0.9800000190734863
0.9533920288085938
0.91839998960495
0.8058919906616211
0.7041209936141968
0.6553149819374084
0.7359539866447449
1.1168700456619263
1.4165400266647339
1.3640899658203125
1.261240005493164
1.2400000095367432
1.4160699844360352
1.755210041999817
1.7573399543762207
1.602620005607605
1.4187500476837158
1.2532399892807007
1.479740023612976
1.6550899744033813
1.6088999509811401
1.56482994556427
1.5499999523162842
1.5659199953079224
1.689520001411438
1.8387099504470825
1.744230031967163
1.5834399461746216
1.4352799654006958
1.2923799753189087
1.3341200351715088
1.4845000505447388
1.5499999523162842
1.5736299753189087
1.7225899696350098
1.851680040359497
1.8600000143051147
1.8600000143051147
1.8600000143051147
1.910830020904541
2.0410099029541016
2.097330093383789
1.9921499490737915
1.8007999658584595
1.5175800323486328
1.3051199913024902
1.5467900037765503
1.7908999919891357
1.5402100086212158
1.3571399450302124
1.5760300159454346
1.6562000513076782
1.2039899826049805
0.8210179805755615
0.9244099855422974
1.129080057144165
1.0889400243759155
0.9967169761657715
1.0813599824905396
1.2238399982452393
1.3130899667739868
1.388759970664978
1.4690200090408325
1.5499999523162842
