# vtk DataFile Version 2.0
Vessel Segment
ASCII
DATASET POLYDATA
POINTS 64 float
-4.020625879568998 -15.670082444468262 -1.2547915105870096
-3.057204188643721 -15.703885434395747 -1.6593339584846152
-2.2275597342223845 -15.541410080039734 -2.143652130997627
-1.5112137636853116 -15.103494020795239 -2.7264454357603456
-1.0408624362649626 -14.397496336446606 -3.2781732989570194
-0.732421660022816 -13.539586346005395 -3.7228653602908204
-0.4804488229643139 -12.613832208370358 -4.052384321123062
-0.21823967057196972 -11.662950369037052 -4.289617770981775
0.07659050690528627 -10.70927296258581 -4.471131517663758
0.38527380698563096 -9.75852440622706 -4.644981013587791
0.6527214055895733 -8.80448990592854 -4.862859072100588
0.7835508073942499 -7.848654354098718 -5.175083583171733
0.6528532434308119 -6.934508574543289 -5.591247279075293
0.20375609231208403 -6.139140172642369 -6.029308827628954
-0.4977320956726434 -5.4976324086148045 -6.381315773249367
-1.35100310589521 -4.993942254503116 -6.596800327702931
-2.2818163015901938 -4.598115510967028 -6.671357881086768
-3.2445063443008153 -4.283366989865462 -6.616345519675172
-4.210860967519737 -4.02729995381643 -6.443864885716524
-5.159417636296086 -3.8090493799305887 -6.158563259236066
-6.06339445789667 -3.6062452475738858 -5.746919365826591
-6.858507259166665 -3.38255032524155 -5.146629878436603
-7.1449180220177 -3.074765174186091 -4.2542782261874175
-6.5973456824355265 -2.7751340360443186 -3.4632439821549323
-5.757444425211859 -2.5439031414453517 -2.9401851880267036
-4.854377002434282 -2.333946495552063 -2.5281450491316364
-3.9314439342564027 -2.118732072313758 -2.16611833682168
-3.010706763032963 -1.8733671055826324 -1.8175732084998615
-2.1155765919927396 -1.5664163002203209 -1.4519116803679468
-1.2822314002273647 -1.1614484594141612 -1.0392310174033896
-0.5637267223697673 -0.6333294398727435 -0.5564925153873282
0.0 0.0 0.0
0.4234628634536365 0.6837879192482688 0.6181505988624802
0.7483878714945992 1.372616998784895 1.2882942455551878
1.0065377321629863 2.0410885306014315 2.006467965908533
1.2128919690935058 2.6742441218572948 2.771852068087938
1.3669921655620534 3.261139292821658 3.584873498126867
1.4570362482304566 3.789728343362112 4.446113080428196
1.4672747969205435 4.24322483268796 5.353397880926416
1.3887426931285336 4.600993462505413 6.2993048675541345
1.2304989220899814 4.843310256231612 7.27146267660315
1.019607785788724 4.95723983068583 8.257092001350008
0.7934229237623539 4.938896389804688 9.245776971503934
0.5889331631486057 4.792211551333615 10.22846072945211
0.4367257993570997 4.527778822404804 11.195852067561768
0.35359613203964146 4.163401402882583 12.138921563574872
0.34016324597419034 3.721830397968517 13.052147059461232
0.3825266345880844 3.2273179255690265 13.936999827248437
0.4574900007623222 2.702327781059815 14.801996648055352
0.5395749922340244 2.167101363389434 15.66007559882363
0.6066045766852259 1.6413084666522282 16.525165003289878
0.64317321490418 1.1473574017174035 17.410593685014234
0.6421873395809585 0.7142667826441211 18.328009793333553
0.6052129764606801 0.380279639746491 19.28509914525283
0.5434226749957609 0.19561156859290665 20.280412855900515
0.4789754391761899 0.22123041443856267 21.291911691938232
0.44533507078089235 0.5107723890123246 22.262517772816434
0.47765797312368147 1.0624867020183437 23.112010794521254
0.5934859923692112 1.8022105546202187 23.79565875301386
0.7891706237910445 2.640383827915103 24.33277910558525
1.0531771898451834 3.5153335602831373 24.76787738480293
1.3879927250270472 4.4068562887998555 25.151115632004938
1.7601647365274262 5.2390850883472755 25.49284768788197
2.248636675459407 6.072314223760287 25.893348150645352
LINES 1 65
64 0 1 2 3 4 5 6 7 8 9 10 11 12 13 14 15 16 17 18 19 20 21 22 23 24 25 26 27 28 29 30 31 32 33 34 35 36 37 38 39 40 41 42 43 44 45 46 47 48 49 50 51 52 53 54 55 56 57 58 59 60 61 62 63
POINT_DATA 64
SCALARS MaximumInscribedSphereRadius float
LOOKUP_TABLE default
1.6399999856948853
1.6399999856948853
1.5163300037384033
1.0414299964904785
1.0104600191116333
1.3339899778366089
1.8646399974822998
2.2057199478149414
2.2988998889923096
2.0573201179504395
1.7459499835968018
1.5593199729919434
1.6540800333023071
1.8615700006484985
2.1246800422668457
2.585710048675537
2.6851699352264404
2.2657299041748047
2.187419891357422
2.3508400917053223
2.557149887084961
2.7395100593566895
2.601030111312866
2.598520040512085
3.1800100803375244
2.8592300415039062
2.570470094680786
2.7425200939178467
2.9925100803375244
3.245490074157715
2.789400100708008
2.5763399600982666
2.7468199729919434
2.4212698936462402
2.110460042953491
2.342020034790039
2.4600000381469727
2.4861600399017334
2.677799940109253
2.7553300857543945
2.2817299365997314
2.049999952316284
2.1058099269866943
2.4429399967193604
2.837290048599243
3.093329906463623
2.81427001953125
2.183120012283325
2.049999952316284
2.1130800247192383
2.3512001037597656
2.589240074157715
2.8389499187469482
3.281559944152832
3.6368401050567627
3.4206199645996094
3.5616300106048584
3.6069700717926025
3.0455400943756104
3.0548501014709473
3.192739963531494
3.0273499488830566
3.1718499660491943
3.690000057220459
