# vtk DataFile Version 2.0
Vessel Segment
ASCII
DATASET POLYDATA
POINTS 64 float
-6.322475784680549 -16.9972980751538 1.5960927612314695
-5.315000074931748 -16.82425188450065 1.7880946048559605
-4.407122842316041 -16.459388473819065 1.7390434626973974
-3.6321323115632635 -15.878777253193121 1.4141797650852044
-3.1335564456442175 -15.18308294062117 0.8725538282647118
-2.827355338814882 -14.451133952528066 0.24020122764796953
-2.62937816100423 -13.69831148169582 -0.4105129033538919
-2.4647428613668065 -12.905861478599324 -1.0222495962306997
-2.2579713314355616 -12.044423800141137 -1.5161087520411909
-1.9351829283698148 -11.121857177493576 -1.7825899933997507
-1.489063151813452 -10.210818882130136 -1.7938978529419676
-0.9785019278092215 -9.34322527064032 -1.6674559186772977
-0.4519715821152937 -8.487876311844815 -1.5239776460585508
0.045267778877465435 -7.606384280057113 -1.4547419376205413
0.4405907679826151 -6.677065204363854 -1.545773869919338
0.6228208069517203 -5.725801288341856 -1.843880387451969
0.5112072107926573 -4.825315581288694 -2.295311621565118
0.12396342537146014 -4.02758547858519 -2.7870905888431556
-0.45532410494105885 -3.3256957452264286 -3.2350557208505752
-1.1483351367755756 -2.683129135479134 -3.6039522728607585
-1.9009420295729478 -2.0633247949126474 -3.884306795280498
-2.6765670243090107 -1.436789592345654 -4.071677583202412
-3.4440231465113262 -0.7782632023271907 -4.155106186724449
-4.16060230666407 -0.0645385491022445 -4.106267657586441
-4.7282868765129 0.7443153137881673 -3.833389223780672
-4.71488791000266 1.473491355364184 -3.17932427323627
-4.047189172979142 1.7019655632315926 -2.4516080223675187
-3.220952199864883 1.576734650606849 -1.8742013606117633
-2.3842091730359476 1.291737904798227 -1.3767744475378083
-1.5639242433734222 0.9083566693078208 -0.919160471178293
-0.768874022801799 0.4656342826875407 -0.47053498104448116
0.0 0.0 0.0
0.745178511708469 -0.4401960708965133 0.5294030731010719
1.463769051545235 -0.7825210313559897 1.1581635041242035
2.131888643407923 -0.9377123806565731 1.904807992891037
2.7103207974434333 -0.8620575491730627 2.734123968632806
3.183842297411524 -0.598679301987891 3.591595630820187
3.564703722097912 -0.2213100108676982 4.452787334457202
3.8684123148688423 0.2116426795138116 5.318583314889525
4.102877510452735 0.6592469088556616 6.198362099822921
4.269763703187995 1.0923523544578526 7.100561491002012
4.36831073691479 1.489951661049233 8.028720604952827
4.397008460023947 1.8371112249952535 8.981539393912664
4.352874889105907 2.119239422614804 9.955038789581922
4.225450201947048 2.3128941648655053 10.942585676768658
3.990577235025689 2.3775705019478175 11.927302533761699
3.617666631052675 2.255982017312746 12.861930890808514
3.087383859975496 1.9232867248893242 13.659900813326354
2.422571866854816 1.432313771212012 14.24583764752044
1.7327477216055498 0.9164635670927288 14.782556074751545
1.0880711266308984 0.4724996424564825 15.428413904444705
0.37836550018101417 0.12479130344699446 16.062595853529103
-0.39370883584611543 -0.187379542989919 16.6442938234974
-1.0517029325600395 -0.6373773617306866 17.268652286329484
-1.51878080709026 -1.2447322971533143 17.933844892784087
-1.814294684924451 -1.9414190219070824 18.609135145246043
-1.9845457212224813 -2.678566435460006 19.285067756229207
-2.0783108846591616 -3.424368390838019 19.96655935975593
-2.1376236239967996 -4.156402339924617 20.666478380246883
-2.203092707772751 -4.849077857638732 21.40530674638444
-2.319310279658679 -5.460410458086965 22.20421485442943
-2.5608973576435083 -5.896518610995633 23.09766297014948
-2.938720801111588 -6.053838106214061 23.988890761037773
-3.479442179863865 -5.874392539128361 24.858393614188945
LINES 1 65
64 0 1 2 3 4 5 6 7 8 9 10 11 12 13 14 15 16 17 18 19 20 21 22 23 24 25 26 27 28 29 30 31 32 33 34 35 36 37 38 39 40 41 42 43 44 45 46 47 48 49 50 51 52 53 54 55 56 57 58 59 60 61 62 63
POINT_DATA 64
SCALARS MaximumInscribedSphereRadius float
LOOKUP_TABLE default
0.6200000047683716
0.6200000047683716
0.6538559794425964
0.8119289875030518
1.1218899488449097
1.557770013809204
1.50531005859375
1.3143999576568604
1.3105800151824951
1.2740999460220337
1.3200600147247314
1.467650055885315
1.3768999576568604
1.2230299711227417
1.1318999528884888
0.8409780263900757
0.7087349891662598
0.9194409847259521
1.1271599531173706
1.248769998550415
1.251420021057129
1.2400599718093872
1.2510299682617188
1.3756300210952759
1.565310001373291
1.6110399961471558
1.7117300033569336
2.0759201049804688
2.0291600227355957
1.8296300172805786
1.4975999593734741
1.328510046005249
1.4793200492858887
1.6820399761199951
1.8449599742889404
1.8631500005722046
2.0002899169921875
2.1080799102783203
1.961899995803833
1.8655099868774414
1.8600000143051147
1.8600000143051147
1.8600000143051147
1.868209958076477
1.9699900150299072
2.141279935836792
2.177999973297119
2.060879945755005
1.8860199451446533
2.28725004196167
2.6623098850250244
1.999019980430603
1.7138999700546265
2.098099946975708
2.0749399662017822
1.8493800163269043
1.90201997756958
1.964269995689392
1.9913400411605835
2.0955300331115723
1.9952900409698486
1.2846599817276
1.4672000408172607
2.1700000762939453
