# vtk DataFile Version 2.0
Vessel Segment
ASCII
DATASET POLYDATA
POINTS 64 float
-0.23418580295767552 -16.535880966021665 -4.47734873955786
0.20211681361851916 -16.685720205202475 -5.415212582954771
0.6502219153060984 -16.386451157644604 -6.23199497370096
1.0131633299583596 -15.68198063736719 -6.861936961884412
1.200348078306387 -14.781933294632351 -7.28829297823065
1.2011928606542495 -13.820515899808422 -7.609924242961962
0.9893734315859966 -12.86909950187883 -7.88764071052405
0.5244974927333518 -12.004806947661427 -8.137830447199406
-0.19476715806702596 -11.320856810102546 -8.33746067657451
-1.0904857461213822 -10.86204701837928 -8.454366440169428
-2.0641705010934386 -10.57970861200826 -8.481051456391794
-3.0581524390261148 -10.383702795456408 -8.42878151015737
-4.047261729575902 -10.19358159756257 -8.307427685078967
-5.010183713612704 -9.936017500344482 -8.119696555272485
-5.89770743597514 -9.523486092181003 -7.857691086578778
-6.552788316022759 -8.840993270928799 -7.50517305095112
-6.573626519223774 -7.924122381948473 -7.112857674202517
-5.9118449594336715 -7.209621618808885 -6.846975163761269
-4.996051571004965 -6.801315012197672 -6.701763980353332
-4.009469758980763 -6.587530865105608 -6.604676144903974
-3.005374665028948 -6.489291361160823 -6.498661398461778
-2.008745295779473 -6.439673262322854 -6.316859505276916
-1.0722234594110152 -6.3342987392457175 -5.944995921213017
-0.3858347496285255 -6.004064301998325 -5.284624055274952
-0.05737118910780955 -5.445406239728168 -4.506177569574613
0.07751634989624513 -4.773997232315183 -3.7581900097316425
0.12964209757003609 -4.039013707005457 -3.060915105078492
0.14164479973132996 -3.2603877817845377 -2.410667778016514
0.12916355692574535 -2.4513412699858645 -1.7985661614819517
0.09819535910333418 -1.6259479795542282 -1.2093928821348152
0.052827935418714236 -0.8013199110534902 -0.6199698802280114
0.0 0.0 0.0
-0.04868956794088495 0.7497873599403785 0.681441466416705
-0.0794476689996757 1.4157761482253857 1.4457447331690554
-0.08258557008597588 1.9684922919067165 2.2960849908133354
-0.05702926055128678 2.388518722029058 3.2187979895426198
-0.009059201429530359 2.6693649703572087 4.192113065043938
0.052447818982070585 2.8128562816963827 5.194249130288756
0.12081366066340132 2.822472839828905 6.206150710322589
0.19580184640009077 2.7016369409490357 7.210403249478665
0.2854197616649333 2.4585090187843583 8.19106630043816
0.40304493242207573 2.115980901659536 9.13863517585767
0.561132466577531 1.716576632427023 10.057742781122547
0.7649463770331145 1.3157479854780463 10.96720499069886
1.0101223931043555 0.9680069389551985 11.888122027645734
1.2857032139651283 0.7200165388731845 12.832208734969322
1.57726643096786 0.6137197933942992 13.797633013187752
1.8674818763342496 0.6874544931184425 14.766222633023284
2.1365143928890027 0.9733900462218584 15.700626380718424
2.3645311558435 1.484834723106808 16.545160107019484
2.539726196827288 2.1964025688462647 17.2450429923228
2.6657691220314175 3.04692708310419 17.78229928354828
2.7519945959623695 3.975704593843845 18.1805301018654
2.8016139215279474 4.943916813053174 18.479363360231
2.8065903415466558 5.930721197067052 18.714592370261624
2.7487083079095367 6.9246793334628745 18.909278857782486
2.6038290859268365 7.915537842311058 19.07074068970311
2.3527418233888238 8.890801618608325 19.191587917115527
1.9928508221236951 9.836908715599748 19.256602003886325
1.5392897955456493 10.743968569599735 19.252642920115854
1.0147556787069083 11.609439628472693 19.17443752305692
0.4398011704213815 12.435210083723055 19.022863875366866
-0.14222237719094943 13.193135982632654 18.81501881172112
-0.7860429778007859 13.96495672284648 18.519687578416757
LINES 1 65
64 0 1 2 3 4 5 6 7 8 9 10 11 12 13 14 15 16 17 18 19 20 21 22 23 24 25 26 27 28 29 30 31 32 33 34 35 36 37 38 39 40 41 42 43 44 45 46 47 48 49 50 51 52 53 54 55 56 57 58 59 60 61 62 63
POINT_DATA 64
SCALARS MaximumInscribedSphereRadius float
LOOKUP_TABLE default
0.6200000047683716
0.9503509998321533
1.214419960975647
1.2400000095367432
1.2400000095367432
1.2400000095367432
1.2406500577926636
1.255769968032837
1.3360999822616577
1.7115600109100342
1.8592499494552612
1.8397799730300903
1.7098499536514282
1.5548700094223022
1.5722299814224243
1.7296600341796875
1.8751499652862549
1.8611899614334106
1.8740899562835693
2.014349937438965
2.206209897994995
2.4041199684143066
2.365679979324341
2.2228100299835205
2.2363600730895996
2.408370018005371
2.3761699199676514
2.2079200744628906
2.4350099563598633
2.688499927520752
2.4923999309539795
2.2133100032806396
2.178109884262085
2.1700000762939453
2.1708099842071533
2.181180000305176
2.169250011444092
2.049269914627075
1.9288599491119385
1.839460015296936
1.705590009689331
1.5959800481796265
1.70933997631073
1.9490400552749634
2.336430072784424
2.361030101776123
2.225939989089966
2.350950002670288
2.4171299934387207
2.2297699451446533
2.1280100345611572
2.0606698989868164
1.9401099681854248
1.9210799932479858
2.096100091934204
2.328900098800659
2.5721399784088135
2.5714099407196045
2.4291999340057373
2.050410032272339
2.0557899475097656
2.373389959335327
2.356329917907715
2.1700000762939453
