# vtk DataFile Version 2.0
Vessel Segment
ASCII
DATASET POLYDATA
POINTS 64 float
-2.3350489548802953 -13.66520815372713 -0.9212745255092146
-1.5789276318833756 -13.028844525255733 -1.2672206313347585
-0.9548974146046338 -12.409108851663428 -1.683055274282736
-0.34738775420931095 -11.736259979350546 -2.1621402348435006
0.2096356326522143 -11.047736940917838 -2.6539619396797334
0.7415548617039865 -10.325823966191756 -3.1286242283297323
1.2547986021595687 -9.55181113468656 -3.5369930387970387
1.725215567271811 -8.693961142994542 -3.8029178593116546
2.031389884480178 -7.731129530011443 -3.8761480584738215
1.9653032297766488 -6.72204051874795 -3.8628983390642335
1.4839036204800442 -5.835210680258597 -3.943565227118287
0.7583768014225449 -5.160683385622498 -4.157488133212336
-0.08434454616871208 -4.683273954601045 -4.457778531076047
-0.9917368533167937 -4.371317492828367 -4.786493477458659
-1.9445476642835702 -4.190836666926475 -5.083956865585207
-2.932410341859659 -4.09393362616195 -5.293024275679459
-3.940794174828369 -4.017980027947663 -5.371772780545227
-4.9455145794663125 -3.8966543252189254 -5.304998048989574
-5.9143744816047334 -3.6767588843632706 -5.102114085852974
-6.8101299123722905 -3.32155614232069 -4.782933980726025
-7.5657848414732705 -2.800906163248802 -4.363659018641214
-7.9736941930317515 -2.042214909338467 -3.8338119572855414
-7.399987149004235 -1.3366019207699755 -3.4279659320555105
-6.416743261361197 -1.0959840304423845 -3.325957950778084
-5.406815424525141 -1.0288013312102489 -3.2879920679912966
-4.393715570975138 -1.0453124437572034 -3.232350388625162
-3.389500439260035 -1.0923649567796576 -3.096455518742372
-2.4153843419432377 -1.1200300580589657 -2.815657219974674
-1.5291046677635869 -1.0605306741951859 -2.3278755560242868
-0.8200714938097157 -0.8497082051349951 -1.6358178079771941
-0.3259032887254756 -0.4823781825845868 -0.830598765786659
0.0 0.0 0.0
0.22524704750919086 0.5557355889246712 0.8183139931361559
0.39777580167628546 1.1587604455554057 1.6157016465432699
0.5429539077097062 1.7941583019802705 2.393300954073839
0.6687226630058971 2.45040059304987 3.156756674364658
0.7680395098999272 3.1132359536266105 3.9184554605630026
0.8227622170365866 3.7595353619608423 4.698633525915399
0.8118014496335612 4.35355735677072 5.520786733853725
0.7230972163724029 4.850019398602101 6.400759610122837
0.5632033485679924 5.209677824853378 7.335495204957433
0.35313918214394074 5.4137114393296315 8.306502147883492
0.11744364405065655 5.462729145571637 9.2918258552787
-0.12346153024110931 5.3641285280449456 10.27216074410338
-0.35296947114367316 5.122315561969153 11.23009009944217
-0.5543094968167295 4.73610067807451 12.14605500951211
-0.7062546172918963 4.20755097421931 12.998201822708335
-0.7832204112107176 3.554085149553275 13.769996048688446
-0.7609017295278521 2.813446682528072 14.462647246340243
-0.6259240187454688 2.0383567328648207 15.103034121202777
-0.3834569004810864 1.2826948346613132 15.734912148626332
-0.057470254027544805 0.5900564949877019 16.40051320795433
0.3185541811736296 -0.0031838654262890268 17.132313152208795
0.7088993683920555 -0.45798588763874604 17.95038829954852
1.078739343624285 -0.7250617828273814 18.855798561161958
1.4032238810378577 -0.7525675680954901 19.81557056950196
1.6796432737377234 -0.5205013093434363 20.762813614688742
1.921361200509978 -0.06376447628790297 21.635156556226473
2.144577917823276 0.5502808165118804 22.41101136491888
2.3610811061667665 1.253670860814572 23.109250363866376
2.576457022140601 1.9886017049820006 23.77337228210843
2.7920233910232066 2.687230552900216 24.48675288208943
2.9882632300586813 3.2285940468251852 25.280785038508036
3.131280761535573 3.361460089996776 26.3047700958603
LINES 1 65
64 0 1 2 3 4 5 6 7 8 9 10 11 12 13 14 15 16 17 18 19 20 21 22 23 24 25 26 27 28 29 30 31 32 33 34 35 36 37 38 39 40 41 42 43 44 45 46 47 48 49 50 51 52 53 54 55 56 57 58 59 60 61 62 63
POINT_DATA 64
SCALARS MaximumInscribedSphereRadius float
LOOKUP_TABLE default
1.2400000095367432
1.054610013961792
0.8732860088348389
0.6925690174102783
0.7354859709739685
0.9293500185012817
1.1482900381088257
1.3982900381088257
1.4026800394058228
1.125309944152832
1.1646000146865845
1.643030047416687
1.4172699451446533
1.2400000095367432
1.2772300243377686
1.443310022354126
1.4463900327682495
1.2772599458694458
1.4230899810791016
1.6306999921798706
1.80485999584198
1.588670015335083
1.5545799732208252
1.5723299980163574
1.5657000541687012
1.585819959640503
1.7651400566101074
1.8182200193405151
1.7477400302886963
1.6838200092315674
1.9294400215148926
2.0045700073242188
1.4985599517822266
1.5528099536895752
2.0109798908233643
1.8702199459075928
1.6546399593353271
1.768090009689331
1.8600000143051147
1.8289799690246582
1.6741199493408203
1.5615899562835693
1.5505900382995605
1.5972199440002441
1.7139899730682373
1.9792799949645996
2.0511300563812256
1.7046500444412231
1.6927499771118164
1.8871099948883057
2.0801100730895996
2.0673201084136963
1.9081000089645386
1.8748199939727783
2.1775600910186768
2.789680004119873
2.7547500133514404
2.573080062866211
2.409480094909668
2.4110500812530518
2.4056899547576904
2.0850799083709717
1.7808899879455566
1.5809999704360962
