# vtk DataFile Version 2.0
Vessel Segment
ASCII
DATASET POLYDATA
POINTS 64 float
-2.198722003969877 -15.545761631972557 -0.7280706379135233
-1.5554207169622476 -14.797406109007294 -1.0247807468330246
-1.2439306807658814 -14.153113185251147 -1.7136170678241351
-1.1815411408636258 -13.626901570693544 -2.57643829071066
-1.2172053208347398 -13.133168271695764 -3.4619792733682706
-1.176380898441272 -12.514584868986551 -4.26140370653673
-0.8273593065794711 -11.673287910087032 -4.684263503881373
-0.2852863640229608 -10.818776903852275 -4.754434937592321
0.27799743087061624 -9.974929358187989 -4.763337531444519
0.7627389206393854 -9.09011102804074 -4.86038252870514
0.970103373949342 -8.144183207380044 -5.141952208379112
0.5901683479473727 -7.297325295686809 -5.518422294304435
-0.2619448291877815 -6.786193784591397 -5.685093679380254
-1.250592370262442 -6.582500156320931 -5.610031208382346
-2.2429925905149855 -6.57259288860475 -5.402389764647055
-3.21703317472498 -6.660077116984443 -5.132515536965492
-4.175090619352277 -6.747053797919661 -4.816859079541682
-5.061540060506081 -6.600542234828221 -4.372830801511586
-4.979345516677771 -5.805778445985773 -3.86895037187969
-4.258614818048471 -5.1156196987561575 -3.701916532818524
-3.369424686792167 -4.6340784831680955 -3.7577755135753192
-2.4002034639201044 -4.427923699941748 -3.964394899189432
-1.4081679687420832 -4.4661602717696 -4.169054068158912
-0.4026527357880056 -4.585238355728626 -4.196529221455386
0.5626035938529869 -4.555331030001502 -3.904225627486619
1.2960526880725292 -4.195859065840046 -3.3137706733722094
1.7036133268693945 -3.5718729227904995 -2.630020289492547
1.839718203711655 -2.8129627833542434 -1.9732355756341229
1.7303019869170333 -1.999672314356169 -1.3794609211161886
1.3620782288011513 -1.2095462130804295 -0.8643273463895964
0.7532830272037138 -0.5310074955064737 -0.4226579597421319
0.0 0.0 0.0
-0.7833121457956411 0.4191995383375049 0.48893757904283347
-1.4729075037751678 0.7844172010028442 1.1346088407811703
-1.8816247584104653 1.1333312203557069 1.9895184579176628
-1.8903613494883633 1.4241102999579678 2.957681799267371
-1.6310771469559773 1.5711519959909583 3.925927680909922
-1.2923278706032169 1.503841120119819 4.878386381826931
-1.0038618775871595 1.2014494228851413 5.801352504424287
-0.810609735825304 0.7263252116566369 6.675965806946578
-0.6832259165776171 0.1627681195760032 7.509838186829908
-0.5616184889077371 -0.4333478995392346 8.32178198539876
-0.38981449055687123 -1.0317441606259807 9.122776836236302
-0.15118223344215082 -1.6135172823698187 9.918882875020039
0.132405423159304 -2.161810301245581 10.723994163509031
0.43283017581455957 -2.649168061409971 11.561419967154816
0.7344890608343347 -3.02136046907903 12.45496529772527
1.0373509284945763 -3.181108869052153 13.408014456638808
1.3358405882840305 -3.0370297415914065 14.3641413496263
1.6032933180243287 -2.5953678735260532 15.235045213835749
1.808582403909817 -1.9287806779851653 15.969693525443455
1.9297968780435653 -1.1058566818450826 16.54841736351974
1.9695864148830902 -0.1866137368466229 16.974233592439145
1.9627952448268402 0.7797396270272596 17.28283551361382
1.954145406498279 1.7637515163510737 17.529674274431166
1.9593692704718981 2.751896283423449 17.759873699061508
1.9540089033715236 3.7385795853529964 17.99598993497991
1.8823378851686223 4.721195168500608 18.237327272850198
1.675909789067076 5.689450986007821 18.45571268332028
1.2955400195142295 6.61708516155193 18.604746692234023
0.7689721068135669 7.482515531515175 18.647898272908982
0.16440424693859554 8.290950160105016 18.57097165590227
-0.4406819744847377 9.053654997668824 18.37270997903723
-1.009278105857612 9.842504286664786 18.0137065091725
LINES 1 65
64 0 1 2 3 4 5 6 7 8 9 10 11 12 13 14 15 16 17 18 19 20 21 22 23 24 25 26 27 28 29 30 31 32 33 34 35 36 37 38 39 40 41 42 43 44 45 46 47 48 49 50 51 52 53 54 55 56 57 58 59 60 61 62 63
POINT_DATA 64
SCALARS MaximumInscribedSphereRadius float
LOOKUP_TABLE default
0.9300000071525574
1.11667001247406
1.326449990272522
1.5206700563430786
1.3500299453735352
1.2400000095367432
1.2400000095367432
1.2400000095367432
1.2400000095367432
1.4305700063705444
1.4432899951934814
1.1483299732208252
1.0194100141525269
1.49753999710083
1.3724199533462524
1.3030600547790527
1.5404399633407593
2.0905001163482666
2.0942699909210205
1.6709599494934082
1.061079978942871
1.1456899642944336
1.2400000095367432
1.3337899446487427
1.5304399728775024
1.5703699588775635
1.7869700193405151
1.7177400588989258
1.5530799627304077
1.5521199703216553
1.7082799673080444
1.850059986114502
1.8757699728012085
2.042140007019043
1.9274799823760986
1.6145999431610107
1.8358099460601807
1.8769299983978271
1.8475099802017212
1.7165199518203735
1.4600499868392944
1.4808000326156616
1.6289399862289429
1.840939998626709
1.6683299541473389
1.559399962425232
1.6285699605941772
2.016129970550537
2.1830599308013916
2.01665997505188
1.6476800441741943
1.9563599824905396
1.9761699438095093
1.8602700233459473
1.8616700172424316
2.01705002784729
2.231410026550293
2.421299934387207
2.3066298961639404
2.260930061340332
2.4559199810028076
2.4800000190734863
2.377609968185425
2.1700000762939453
