# vtk DataFile Version 2.0
Vessel Segment
ASCII
DATASET POLYDATA
POINTS 64 float
-0.6655086654875453 -14.386734136820253 -1.2734158465206744
-0.716400845363688 -14.380130561124485 -2.3191728337363218
-0.7592247166408788 -14.108013493685663 -3.257166669153722
-0.7887984756462987 -13.549222389170422 -4.104378086465724
-0.7912961488258062 -12.754506939701956 -4.732746760403357
-0.757655685227956 -11.825531021472672 -5.136782058473042
-0.6792325531728662 -10.840218235561789 -5.363582004814742
-0.5477247328685552 -9.84011059717526 -5.470585646895698
-0.35923351989388047 -8.843988661812125 -5.508332831890866
-0.1175934115413925 -7.858426172105041 -5.516384521529286
0.1649351754767726 -6.885141965968373 -5.525239256058041
0.4644519387074142 -5.9204188953230785 -5.562961946290685
0.7143065617923711 -4.888427896941858 -5.676248603875246
-0.03571045742444979 -4.49507764664406 -5.724653742934429
-0.9695718049265983 -4.834475080642689 -5.542342325582563
-1.8791965912152502 -5.206135027842618 -5.278873884914798
-2.7767488979677744 -5.543433870664885 -4.948421212876202
-3.6776198356012366 -5.792818679892234 -4.554816957017107
-4.578057095959646 -5.885499216569128 -4.09847432101694
-5.433269298047642 -5.6947884463797624 -3.5918901025167664
-6.052155683447751 -5.054288055664693 -3.123926437760579
-6.129125538226006 -4.082011930048992 -2.8845758660127774
-5.694046234239098 -3.170598412302492 -2.9026550028453673
-4.965310384967647 -2.484296358147519 -3.0549134073248383
-4.0778971716604016 -2.0301521756250556 -3.237353378079689
-3.1052475232832215 -1.776528168611238 -3.368931124452557
-2.09662552343931 -1.6751655777643435 -3.367610035800152
-1.1160068815389883 -1.6513204092676737 -3.115173637355549
-0.33609867782836633 -1.5492056255475106 -2.484683892501263
0.037117949676892484 -1.211045764248545 -1.60961217231519
0.09596308175557947 -0.6693621542440219 -0.7556613426193501
0.0 0.0 0.0
-0.16881759167651367 0.7506257341245814 0.6611298651344855
-0.3711122354115674 1.547590852436261 1.2554145098840643
-0.5863038444142009 2.3582640387561833 1.8262335641554437
-0.8026752607211363 3.141726485368918 2.4333944278473933
-1.0087236763465326 3.835002251271587 3.1440312338809857
-1.1880861952385355 4.35831963147676 3.9929801762215433
-1.3249582832875626 4.664375174413008 4.949436089198529
-1.4125283011634329 4.762430415207943 5.954719228973495
-1.4485455147756257 4.682037879803421 6.964911821171909
-1.4301247785520825 4.44801964554052 7.951485352144203
-1.3519453529268144 4.0808661434949975 8.893637623172848
-1.2092169924841791 3.602347472823259 9.776434768377994
-1.0005248652822731 3.040242487994403 10.594621524872911
-0.7312028287140525 2.429377228083693 11.358505069889278
-0.413574063603203 1.8081873861841113 12.095115691148763
-0.062392321164678397 1.2130110770562579 12.83787556437147
0.3077350573937228 0.676510133147855 13.615251923465815
0.6825673798167278 0.23189423757146685 14.446299921594102
1.0466453319477111 -0.08441796857370064 15.338373454251172
1.3809188441699747 -0.22962512654955386 16.28441457382126
1.6608483162644474 -0.15757781263032197 17.2556921091172
1.8616033472217668 0.1638542987581086 18.195220856886095
1.9757321692077912 0.7201564509473396 19.03443874922371
2.024841373255713 1.4518108580465565 19.734443258371435
2.04562423767066 2.2940603566490325 20.298962048020428
2.0717685807928428 3.2000543525965535 20.754388145655664
2.1294356337578444 4.139273644969287 21.13356125651658
2.2405698381374664 5.088005849099985 21.4751687293065
2.429672394597884 6.01679310425516 21.837100506624733
2.732552139200623 6.8600626630731165 22.315297240145014
3.1497345216646355 7.450478718333654 22.976217384934724
3.659805793763192 7.6418752959413325 23.86733471421473
LINES 1 65
64 0 1 2 3 4 5 6 7 8 9 10 11 12 13 14 15 16 17 18 19 20 21 22 23 24 25 26 27 28 29 30 31 32 33 34 35 36 37 38 39 40 41 42 43 44 45 46 47 48 49 50 51 52 53 54 55 56 57 58 59 60 61 62 63
POINT_DATA 64
SCALARS MaximumInscribedSphereRadius float
LOOKUP_TABLE default
0.8741999864578247
0.9059609770774841
0.848908007144928
0.691989004611969
1.0277600288391113
1.3615399599075317
1.5216799974441528
1.3519500494003296
1.1496200561523438
0.9806389808654785
0.9300000071525574
0.9435179829597473
1.0337300300598145
1.1160000562667847
1.12391996383667
1.1924699544906616
1.2497199773788452
1.0460799932479858
1.030519962310791
1.2103999853134155
1.2400000095367432
1.2478400468826294
1.4265799522399902
1.5551999807357788
1.5415500402450562
1.2760499715805054
1.1754399538040161
1.2023500204086304
1.059980034828186
1.4431899785995483
1.5499999523162842
1.3840999603271484
1.090749979019165
1.3635499477386475
1.8338600397109985
1.63510000705719
1.5499999523162842
1.4504899978637695
1.064039945602417
1.1069600582122803
1.2400000095367432
1.2604700326919556
1.4863899946212769
1.7148799896240234
1.8440799713134766
2.0385499000549316
2.089479923248291
1.8973900079727173
1.5345799922943115
1.3447699546813965
1.517799973487854
1.5809999704360962
1.652169942855835
1.844130039215088
2.0590600967407227
1.8594499826431274
1.3907500505447388
1.5117499828338623
1.634060025215149
1.534250020980835
1.340590000152588
1.3825600147247314
1.5401699542999268
1.5499999523162842
