# vtk DataFile Version 2.0
Vessel Segment
ASCII
DATASET POLYDATA
POINTS 64 float
-1.0993975361241115 -11.701684229278893 -2.825782957474175
-0.29163866748500356 -11.611659385220397 -3.4807866497837043
0.43246427478895344 -11.112377325628891 -3.9138013026070086
1.0498543382847585 -10.361926023205559 -4.2113935708530486
1.5114754174240728 -9.479741803373662 -4.403808415536577
1.8297543918967185 -8.527275029301022 -4.5451649251865485
2.0043546081033563 -7.536233976420795 -4.671361377105508
2.011934352911358 -6.531541821802153 -4.808362954845912
1.7802329149887195 -5.5601405825503125 -4.974208061159391
1.1313695835447646 -4.813731699535194 -5.152833042195728
0.13463620157029793 -4.687409314495966 -5.2104284428603735
-0.8257325891537773 -4.9963872346716 -5.106964525274048
-1.7172131786670077 -5.4349556740762095 -4.902326496254064
-2.582559906198118 -5.885232650963265 -4.623713665805513
-3.4501724977653465 -6.284758177838983 -4.282094621740101
-4.334445532061502 -6.579541199642246 -3.8822252802698682
-5.233354937785935 -6.6960516147797495 -3.429046996360706
-6.095406560780086 -6.491343892362031 -2.942563003177842
-6.595925901920814 -5.718190333440698 -2.5751267052339135
-6.365950047153804 -4.734110088008966 -2.57638600190652
-5.773118531769611 -3.94285127970178 -2.7967360978464235
-5.029454313209341 -3.3290910487620566 -3.1099693137948217
-4.198351151052022 -2.866943610754277 -3.4622960033642483
-3.3037569863107534 -2.5407822460835576 -3.811568382986391
-2.3537303763011 -2.339011585150525 -4.103689066074268
-1.354301475987511 -2.2442889386150253 -4.240846952946196
-0.3697560288415986 -2.199649556727716 -4.0215167218795935
0.3186421861077014 -2.053649860563061 -3.3024007566039355
0.5763455403747042 -1.724336697979466 -2.3800396398401817
0.5526746201720419 -1.2500572515451152 -1.4848649006746724
0.34317615155141146 -0.6663513827853514 -0.6829521505184827
0.0 0.0 0.0
-0.42990811416469416 0.726113547305367 0.5627620130492013
-0.8885508601900238 1.4937513657724153 1.0419690194108073
-1.3080638863592053 2.288084681683403 1.5134133201821296
-1.6225256547184357 3.0762732471609513 2.0684020854070084
-1.7993312333044482 3.7901762925258 2.765863495794763
-1.8641245610977533 4.362435595672039 3.6000618993602007
-1.8684487948511561 4.767512430367405 4.52953739682705
-1.8476600260015534 5.010273467612118 5.514007366767785
-1.8142372875275952 5.104625005014593 6.523266819598699
-1.7637413187467952 5.06247805334552 7.535422258555096
-1.6787439645641362 4.8892007276601435 8.53112188734643
-1.5321940747393008 4.5862097828261925 9.487786133349175
-1.2969817203634801 4.157734264457115 10.376224411218999
-0.962993260510034 3.623117551917383 11.17059557889983
-0.5480703821425986 3.0172161920612974 11.87034364276849
-0.08549805828440896 2.3763904711338353 12.50642224429893
0.39256737197934305 1.731330586285322 13.126805833291254
0.8578747550767468 1.1141017112606921 13.783828950916115
1.2861102686047114 0.566255042482256 14.522155796715118
1.65759534465553 0.140524659776941 15.36402700983437
1.9635376121335206 -0.11012274214226457 16.29737516224157
2.2096380408643217 -0.1449529449916409 17.27999643812998
2.4101456440881814 0.0651363228871379 18.250825505073525
2.5759696750684147 0.5379439830474559 19.1311044619213
2.709683854598523 1.2544595367226152 19.8344027940035
2.810716802679521 2.142380622210386 20.312275296954702
2.8844659678983073 3.1132237266607827 20.59585147098342
2.943324009363149 4.1106103854140965 20.77133902183079
3.0032158826636857 5.109060253159721 20.94238276060005
3.0857550192671965 6.077213854135174 21.243209418994738
3.205741616830448 6.881552232026345 21.787838713819973
3.3768766629823195 7.385279015330483 22.68707147828961
LINES 1 65
64 0 1 2 3 4 5 6 7 8 9 10 11 12 13 14 15 16 17 18 19 20 21 22 23 24 25 26 27 28 29 30 31 32 33 34 35 36 37 38 39 40 41 42 43 44 45 46 47 48 49 50 51 52 53 54 55 56 57 58 59 60 61 62 63
POINT_DATA 64
SCALARS MaximumInscribedSphereRadius float
LOOKUP_TABLE default
0.6200000047683716
0.8245959877967834
0.7367669939994812
0.6200000047683716
0.7262369990348816
1.1228100061416626
1.082419991493225
0.9317669868469238
1.06072998046875
1.3583699464797974
0.7572020292282104
0.9157230257987976
0.9258059859275818
0.894415020942688
1.0389699935913086
1.2591300010681152
0.8147410154342651
0.6694570183753967
1.0673600435256958
1.256410002708435
1.6296800374984741
1.7560800313949585
1.5490399599075317
1.3445600271224976
1.2400000095367432
1.4073799848556519
1.91280996799469
1.8107199668884277
1.0717500448226929
1.2239199876785278
1.6450899839401245
1.8663300275802612
1.8219399452209473
1.6104799509048462
1.5499999523162842
1.3914400339126587
1.2434500455856323
1.2400000095367432
1.2694200277328491
1.4532400369644165
1.5709600448608398
1.5202000141143799
1.3562400341033936
1.5646300315856934
1.8785500526428223
1.6989099979400635
1.4133299589157104
1.338539958000183
1.588670015335083
1.983489990234375
2.1700000762939453
2.111419916152954
1.9386600255966187
1.9306000471115112
1.920390009880066
1.8600000143051147
1.8855400085449219
2.061229944229126
2.1700000762939453
2.2215399742126465
2.411760091781616
2.3144400119781494
2.074620008468628
1.8600000143051147
