# vtk DataFile Version 2.0
Vessel Segment
ASCII
DATASET POLYDATA
POINTS 64 float
0.18206020957561703 -16.286261270238217 1.036445990778276
0.5795396792439865 -15.96787098331839 0.1213469657917123
0.9188770540318218 -15.561137505131887 -0.6942665662768497
1.2106408347600965 -15.006938357073315 -1.5053104613676438
1.3667209323147687 -14.307923656880893 -2.2207375607104822
1.3368390732053481 -13.488230738598341 -2.816279844109402
1.1375727535642708 -12.614598463868834 -3.291465728210613
0.8500180234705742 -11.731249666201267 -3.6993620266368916
0.543136530626398 -10.85201987855988 -4.102111870142059
0.23953808176123417 -9.98941239093013 -4.541516168124038
-0.08413257508300866 -9.1655843713078 -5.037268874587032
-0.48772000065096327 -8.418232310412948 -5.591574568779413
-1.0619827709287715 -7.814951518443506 -6.169007312562669
-1.8721705175314869 -7.4523051008058605 -6.655249676634927
-2.845904730655817 -7.354333258503408 -6.9161616689191465
-3.8573905310934613 -7.4209702399672 -6.932263593816683
-4.846625962706087 -7.54268575878209 -6.745188876750842
-5.788052073874833 -7.63817781172559 -6.380563050747424
-6.642703054541156 -7.625498383620717 -5.835287989093451
-7.240002356969153 -7.352205013702123 -5.061386586332965
-7.086270770015759 -6.752495656429446 -4.295004982124449
-6.38438841842976 -6.15865112071706 -3.862712093636432
-5.549277063584392 -5.6413997820938 -3.609276740846683
-4.679472530202911 -5.153654871792624 -3.422786664945266
-3.8135734872705194 -4.656193072600459 -3.2434003091432375
-2.9816576325877566 -4.1173036386991875 -3.027335164330191
-2.2160006073069374 -3.517753253652114 -2.738938373622425
-1.5464881708379907 -2.8590927128129664 -2.3559809072947893
-0.9898400387022787 -2.1600601808854814 -1.8761637547837247
-0.5485999559775007 -1.441417655565233 -1.3123996183840612
-0.21953065581231224 -0.7178878372366508 -0.6822562567996513
0.0 0.0 0.0
0.11240773116797233 0.7013205076371564 0.7242538018771258
0.1231484028637079 1.3718134662822425 1.4854979828950583
0.04301889351100915 1.992230973154911 2.28406198564625
-0.11028957382926496 2.5385244537319847 3.1249139709606997
-0.3121954037212082 2.9827798453737397 4.014243373462982
-0.5325463093895697 3.297973306768219 4.95275636343621
-0.7403595219913305 3.4670534631680785 5.930993651212206
-0.9115761340911378 3.489074218149493 6.930488000710429
-1.0345126060121805 3.378659953782158 7.931287175172323
-1.1085163596982017 3.1589646225508474 8.918876646749261
-1.1372229190686183 2.8530192072306355 9.885715029958053
-1.1215864396333979 2.478838658606863 10.828575710741713
-1.0560264010020088 2.049216995903904 11.745296377581772
-0.928814744152555 1.575386912033872 12.633273912709985
-0.72641545933381 1.0719091350088885 13.490455323407843
-0.44288070172909877 0.5610171703637601 14.319805749228001
-0.0852639661618642 0.07160790599759459 15.133319782976482
0.3270305317507787 -0.36469734819548166 15.951211530550479
0.7651052926255207 -0.7136749254479468 16.796972465923538
1.1936223670707322 -0.9358470635567602 17.689018517367938
1.5695947277008735 -0.9799471454525644 18.629615405681086
1.8451408868439596 -0.784150371117484 19.584929379123896
1.9897170003645526 -0.3069258971282504 20.466530570506027
2.0158800224345668 0.4197870922269722 21.172075759216334
1.9716078067284115 1.2981452367714397 21.67657324209596
1.9039755426190612 2.239442425918846 22.04893597338921
1.8431539956345893 3.1940097761983055 22.387525931549504
1.8119788974593465 4.125776383552888 22.787250581629714
1.8375927516026822 4.976206089933281 23.337083296436358
1.9533814662561164 5.644321069312386 24.101114318093465
2.144358040581618 6.046892380869504 24.96674688733561
2.420460263312264 6.214282118463114 25.96244939340426
LINES 1 65
64 0 1 2 3 4 5 6 7 8 9 10 11 12 13 14 15 16 17 18 19 20 21 22 23 24 25 26 27 28 29 30 31 32 33 34 35 36 37 38 39 40 41 42 43 44 45 46 47 48 49 50 51 52 53 54 55 56 57 58 59 60 61 62 63
POINT_DATA 64
SCALARS MaximumInscribedSphereRadius float
LOOKUP_TABLE default
1.2300000190734863
1.0413899421691895
0.911998987197876
1.0534900426864624
1.1236599683761597
0.9418219923973083
1.3686399459838867
1.953089952468872
2.5199899673461914
2.1392199993133545
1.75478994846344
1.7004799842834473
1.9201300144195557
2.137939929962158
1.8654299974441528
1.8748199939727783
2.0285699367523193
2.048180103302002
1.9444199800491333
1.9517500400543213
2.3257598876953125
2.148099899291992
2.5205800533294678
2.918610095977783
3.1805100440979004
2.9761199951171875
2.571049928665161
2.7176198959350586
2.8581600189208984
2.869999885559082
2.489609956741333
2.173409938812256
2.3067500591278076
2.549730062484741
2.79325008392334
2.8911099433898926
2.8745501041412354
2.869999885559082
2.884740114212036
2.942970037460327
2.8269400596618652
2.5256800651550293
2.430840015411377
2.3688700199127197
2.193690061569214
2.1521599292755127
2.351439952850342
2.844360113143921
3.471139907836914
3.690000057220459
3.623660087585449
3.1665899753570557
2.7668099403381348
2.6555099487304688
3.2284998893737793
3.5739200115203857
3.315659999847412
3.0700600147247314
3.019619941711426
3.435070037841797
3.556610107421875
3.3406600952148438
3.2799999713897705
3.2799999713897705
