# vtk DataFile Version 2.0
Vessel Segment
ASCII
DATASET POLYDATA
POINTS 64 float
-8.27578421390298 -13.663727265815995 1.2847154674129304
-7.258373477910918 -13.780861082804682 1.0657764065932431
-6.329706171884943 -13.845099343104462 0.7843197967729068
-5.359234451092431 -13.860828123182712 0.45342203508806667
-4.410661056601686 -13.801306021716202 0.10311778332277208
-3.473453987975925 -13.639591629771566 -0.24980551113441796
-2.5642894905882736 -13.33152163747628 -0.5772224207746841
-1.7227785213077034 -12.829022183643113 -0.8357539800946896
-1.0058460456147775 -12.128319412820359 -0.9852679962019917
-0.4318020790994168 -11.293665712260834 -1.0335257305896774
0.0358289415203232 -10.393394903198965 -1.0300569101633061
0.44309575749732216 -9.464152803109673 -1.0300603436705857
0.8197666470428308 -8.523907298688627 -1.0870783960254091
1.170792557353413 -7.587233828611746 -1.2551729419362032
1.4696196048663974 -6.673921738208665 -1.5792112720669016
1.6643594618325295 -5.807425781433867 -2.06842001814214
1.7046307080333798 -4.9997128830617505 -2.6801736669775886
1.5641506478015113 -4.243472622367745 -3.3410481006905877
1.2430358633237475 -3.5210414006062476 -3.976158835497475
0.757536420523642 -2.8193449533192028 -4.5241548353121805
0.13463822168468145 -2.135794031082233 -4.940191928604423
-0.5916269257618687 -1.4753063098754713 -5.1943942641770064
-1.3831724005260024 -0.8454525799951285 -5.265549462123545
-2.195280692664616 -0.25492064872504305 -5.125590282386838
-2.9544141273026523 0.27894617902961905 -4.719192932735708
-3.4977447411123674 0.7081654056123938 -3.9824257906786755
-3.595059217709723 0.9550763198377956 -3.008244828526241
-3.2280437865387226 1.0081194640609552 -2.0668573898477427
-2.5622613148280338 0.9132221292533573 -1.3091406044779583
-1.7473779143104544 0.7024179555868957 -0.7437224480296838
-0.876024621346321 0.3942552996482243 -0.3259359104807477
0.0 0.0 0.0
0.8490626142246864 -0.47106411561222455 0.2940839999655107
1.6468669240887097 -1.0040276844207507 0.6234807117258027
2.366874091050382 -1.5645519960241485 1.0661293928040023
2.97238873948162 -2.071302180677896 1.7014789643673334
3.4252831921282123 -2.392691295343628 2.5481638325728317
3.728208293143071 -2.445231880718727 3.513705435313116
3.9303449764105585 -2.2618902552843227 4.4902567981622585
4.078815066385308 -1.915087560699195 5.4318040103275465
4.199501181562265 -1.4622208434056894 6.331533253176668
4.301441142799335 -0.9413414032805987 7.196199375783285
4.381440320927888 -0.3786098590167004 8.03658293883881
4.423801576600543 0.2044568147384036 8.865875491329843
4.395682066773889 0.7822121076491357 9.699305202933838
4.239410621979757 1.3107718609698336 10.550583814861724
3.879280685994163 1.7064927272970505 11.411124709718017
3.297353537155367 1.8739581049743887 12.223177114957878
2.5864773874603726 1.8166437940909943 12.943980240860498
1.8373733504632963 1.6081505881083893 13.59537887661119
1.0916234083183773 1.310647582533694 14.215625338963216
0.3663208705250918 0.9612419048649831 14.833057599182478
-0.32998671360638576 0.5844504513573866 15.467511993958093
-0.9907256000552257 0.19177866466101579 16.12977371371531
-1.6093520276907591 -0.2106812350758606 16.825939090938157
-2.178514811140961 -0.6231185821232139 17.557545156994845
-2.689430738630521 -1.046945654321273 18.32475422275065
-3.131129949963148 -1.4812854534014432 19.12815598887085
-3.4891892230331845 -1.9202135706390242 19.969773598915857
-3.743974883366173 -2.3497585774562157 20.8527241338009
-3.868264368806818 -2.744469265639537 21.777598946717834
-3.813338926964114 -3.0610892613402023 22.748117334898346
-3.5725728413275912 -3.2467156526292236 23.674962301037557
-3.0571229123917716 -3.232920519284388 24.584756344896622
LINES 1 65
64 0 1 2 3 4 5 6 7 8 9 10 11 12 13 14 15 16 17 18 19 20 21 22 23 24 25 26 27 28 29 30 31 32 33 34 35 36 37 38 39 40 41 42 43 44 45 46 47 48 49 50 51 52 53 54 55 56 57 58 59 60 61 62 63
POINT_DATA 64
SCALARS MaximumInscribedSphereRadius float
LOOKUP_TABLE default
0.9796000123023987
0.954367995262146
1.1010500192642212
1.460569977760315
1.5496599674224854
1.5240399837493896
1.3403799533843994
1.2420099973678589
1.277500033378601
1.6395699977874756
1.8466700315475464
1.8036999702453613
1.5823500156402588
1.3803800344467163
1.9028300046920776
1.86326003074646
1.4809900522232056
1.8901400566101074
1.9761099815368652
1.6743799448013306
1.7131999731063843
1.9364099502563477
2.277829885482788
2.2551798820495605
1.9282200336456299
1.8812700510025024
1.9325499534606934
1.7919399738311768
1.7283999919891357
1.998610019683838
1.8367700576782227
1.635509967803955
1.7522300481796265
1.8531099557876587
1.87431001663208
2.049839973449707
1.9400700330734253
1.5923099517822266
1.5474200248718262
1.467039942741394
1.308419942855835
1.5627399682998657
2.056459903717041
1.8944900035858154
1.6601200103759766
1.7691999673843384
1.7242000102996826
1.6463500261306763
2.0268900394439697
2.1285200119018555
2.0509800910949707
1.7878799438476562
1.4875199794769287
1.1264400482177734
1.0299700498580933
1.1993299722671509
1.505929946899414
1.7101399898529053
1.466770052909851
1.3749699592590332
1.6497900485992432
1.630679965019226
1.6615999937057495
1.8600000143051147
