# vtk DataFile Version 2.0
Vessel Segment
ASCII
DATASET POLYDATA
POINTS 64 float
-8.472295379684109 -13.239632970102564 -4.457822290538256
-7.881932248482789 -14.044397040536325 -4.276226252719701
-7.221428244067908 -14.773215800933212 -4.02638286823477
-6.505765256983201 -15.42362549306759 -3.719805721822443
-5.745333127210796 -15.994131466073958 -3.3651467987616384
-4.948340647108683 -16.48173474735613 -2.9696250531174804
-4.121032872671124 -16.881432285941607 -2.53923090699739
-3.268883028170029 -17.185363737171937 -2.0800098512275245
-2.3977998702711263 -17.381230467307738 -1.5980542756455423
-1.5163803181651767 -17.451402941404456 -1.100457113871985
-0.6391185744358217 -17.37360878788635 -0.5966860335507167
0.21051014824401504 -17.1261904451404 -0.10035789266708321
1.0014888649346276 -16.699346585006143 0.3703546892855511
1.7044010046173457 -16.104184558669026 0.7959302730128278
2.3043131191076553 -15.372478658950877 1.1621896575450115
2.8041962478024915 -14.542292516431745 1.4627518780994484
3.215754297191106 -13.644702234761839 1.695924277036874
3.551185004207406 -12.701322470853995 1.8602517229626996
3.817336673549951 -11.726618749651026 1.9521027882651933
4.014700924501728 -10.731451666209512 1.9656441295704161
4.137075063887045 -9.726757253912414 1.8949428693819081
4.174089784617992 -8.72494453046856 1.7385142220343353
4.114483069475845 -7.739660300810833 1.503885075104054
3.951362775409434 -6.782219852736668 1.210432974475655
3.6853211421913348 -5.857810847451349 0.8877316232284291
3.3245461631457234 -4.964966533393735 0.5682186096810209
2.8819521150362593 -4.098699035466048 0.2799050494337736
2.372716685584571 -3.253146155830427 0.04506751836383917
1.8126986671288563 -2.4232051216667316 -0.1191647908769936
1.2177766750935997 -1.6050235163516942 -0.19708336162242895
0.6054492900322567 -0.7964985544121281 -0.16848395625133045
0.0 0.0 0.0
-0.5503084786633413 0.767874232779828 0.36983643058468385
-0.9248379520041888 1.4357352638196097 1.0355929191364361
-0.9190365885303531 1.8175442623229248 1.975122663503804
-0.5393032139640563 1.8342801662945836 2.91579329389904
0.0304007461064554 1.6064337319268234 3.723760164384402
0.6776610829267183 1.2258458837690975 4.4061814476598995
1.344423688005751 0.7372493774013616 4.994488587537475
1.9957217096661297 0.16371902042129968 5.520147638309775
2.604856600839595 -0.48006188691714474 6.014007178560418
3.147236550562487 -1.1794792274410981 6.510080121652242
3.593955105705543 -1.9121903336257684 7.051361115231337
3.9058861452464186 -2.6352851976483467 7.691088680147066
4.0354376789111495 -3.261564388895936 8.478703667328562
3.962796138382333 -3.6715366170115393 9.403883601743013
3.7381441781964884 -3.8140524708871935 10.383028166444765
3.4354494771807556 -3.7374731475174623 11.34833525861664
3.1013580153746467 -3.507711838540388 12.278428708238172
2.7573125661741034 -3.175199597754429 13.173193070567633
2.4117233879917364 -2.774121145804972 14.038675598414029
2.0663691185842046 -2.3285883421006512 14.882211115000722
1.719369925016399 -1.857056611231305 15.710917788897955
1.3660126364713474 -1.375523941295305 16.53106437028091
0.9983551582544967 -0.898961158874184 17.34790091113367
0.60616937619036 -0.44232328546962046 18.16457368622674
0.1780702470811051 -0.019326936879301645 18.981525434861172
-0.29533175220881247 0.3593669263994797 19.795089521112306
-0.8182886729555773 0.6896754655587211 20.599359252053716
-1.3885266946235881 0.9758549003781294 21.38822301507249
-1.999342690377309 1.2278506083533531 22.15821196319712
-2.6420107736613527 1.4578626735862874 22.90855472691994
-3.3094981062985576 1.6776936166172371 23.64107021493249
-3.9940591556574754 1.8965739354385753 24.35681964343448
LINES 1 65
64 0 1 2 3 4 5 6 7 8 9 10 11 12 13 14 15 16 17 18 19 20 21 22 23 24 25 26 27 28 29 30 31 32 33 34 35 36 37 38 39 40 41 42 43 44 45 46 47 48 49 50 51 52 53 54 55 56 57 58 59 60 61 62 63
POINT_DATA 64
SCALARS MaximumInscribedSphereRadius float
LOOKUP_TABLE default
1.1160000562667847
0.8557369709014893
0.6431040167808533
0.9532179832458496
1.2391999959945679
1.2400000095367432
1.2351900339126587
1.082319974899292
0.9361259937286377
1.094059944152832
1.2414400577545166
1.2626099586486816
1.277109980583191
1.2771999835968018
1.2677799463272095
1.2483199834823608
1.1642199754714966
1.0319000482559204
0.9800379872322083
0.9796000123023987
1.2012399435043335
1.5279099941253662
1.4570499658584595
1.3131099939346313
1.206279993057251
1.1286200284957886
1.2075300216674805
1.2738300561904907
1.2573100328445435
1.2338800430297852
1.0839600563049316
0.9541699886322021
1.3099900484085083
1.5480300188064575
1.5672099590301514
1.7759100198745728
1.7700599431991577
1.6252599954605103
1.6772600412368774
1.8107600212097168
1.8600000143051147
1.8590400218963623
1.75518000125885
1.5778000354766846
1.4074699878692627
1.3838800191879272
1.781790018081665
1.9314500093460083
1.8831000328063965
1.8600000143051147
1.860550045967102
1.899090051651001
2.037899971008301
2.170830011367798
2.182650089263916
2.1978299617767334
2.342010021209717
2.4671199321746826
2.303100109100342
2.0851800441741943
1.6138900518417358
1.3481700420379639
1.9276599884033203
2.4800000190734863
