# vtk DataFile Version 2.0
Vessel Segment
ASCII
DATASET POLYDATA
POINTS 64 float
-1.4070827599287472 -12.186259042637058 1.3776454560894584
-1.0195407901061373 -11.622338116878385 0.6205939080523316
-0.6173344572812529 -11.09098481424484 -0.13778680533728355
-0.2038839990675715 -10.542765443040214 -0.8835435488076294
0.20264336343574796 -9.935339935431438 -1.5866502157305475
0.56640381384514 -9.217884417563923 -2.2032582244101984
0.8315617099547733 -8.359315790867212 -2.669981053794358
0.9600864566315206 -7.3915669984126895 -2.9393771825020325
0.9792928792669712 -6.383309497932757 -3.045785459932781
0.9282047693214651 -5.373126377306646 -3.1219412902314003
0.7338852322210401 -4.40642500998669 -3.346737649693527
0.24908137233707592 -3.6280388047435133 -3.767852724574425
-0.497324922634084 -3.100328542627325 -4.201446524723826
-1.4120506884864275 -2.793863431659567 -4.506148249550991
-2.415623713222562 -2.771270008447402 -4.615438222743702
-3.36874931569215 -3.086494153640968 -4.50375522495936
-4.181005221032556 -3.6153115201904864 -4.209463433345697
-4.888234875573547 -4.199335443214354 -3.7771054168309246
-5.538981210169228 -4.738071699831973 -3.216590047747201
-6.130246501667042 -5.121617270340827 -2.4912255808202843
-6.328453342537213 -4.935771634526785 -1.5721432094299206
-5.798218830213812 -4.222621296113832 -1.0933125064719555
-5.078057694860009 -3.529570013647916 -0.9281352601060394
-4.280197664799615 -2.908860044865516 -0.9861023500327053
-3.45122476180602 -2.418061863019161 -1.2963754032052546
-2.6228310787371427 -2.0806756577162977 -1.7738124385566358
-1.7594836302593009 -1.832402541984565 -2.244526182698198
-0.8203280741096485 -1.5889794522721252 -2.5326525950761276
0.11643898369541737 -1.2572502697854384 -2.3927642947096848
0.6386944109057128 -0.804914332979351 -1.6770258498163473
0.5306021773726962 -0.3604536670655155 -0.7808383987392014
0.0 0.0 0.0
-0.7542810287454099 0.2766862296788913 0.6176170381786623
-1.5729786163120694 0.5314900517958051 1.1600206450005937
-2.291731915756918 0.8726505273032229 1.7853143565466443
-2.671476433322286 1.3750939497701544 2.5724898117908577
-2.6989228081444487 1.9525886518739533 3.4039510330816065
-2.549002139348333 2.5093371033096 4.238289959562323
-2.3350931136054154 2.964904352629898 5.1182690630908905
-2.1097057846103553 3.2022216401386943 6.076065009886372
-1.869316455131986 3.1546048499772414 7.058411260436779
-1.5803249993700403 2.8933595867857322 7.994178001781047
-1.2195808580657936 2.5065991041892275 8.859325532921103
-0.7959306175638634 2.029170410518737 9.64739567137546
-0.342858070153232 1.4615236331408443 10.355172826644338
0.09658506829939915 0.8001497506646237 10.986124011160497
0.4946540813040134 0.06629687402271807 11.562400314510151
0.8696595947559027 -0.687906746860393 12.12805112733472
1.2805358522535553 -1.3950598741136724 12.72785008021004
1.7629029073926106 -2.008164206669983 13.375792836265347
2.2875099364329246 -2.521270405406989 14.075903453514755
2.788168445120628 -2.9216528994160726 14.860914355571877
3.1360368957084948 -3.099920501738863 15.790806241432069
3.1360858268317373 -2.80037712360932 16.745223227996608
2.919739352598233 -2.1108529767233404 17.452519746514593
2.7069750083355304 -1.2734655861455222 17.983147302130885
2.543386439794081 -0.37754029464160216 18.430032214660113
2.3826499152978537 0.5500369778708462 18.80761641657836
2.082396882304196 1.492960247518203 19.01469524036497
1.4448134665807457 2.197618604495655 18.723186055316997
0.7158607981026457 2.549591853164631 18.11240841026943
0.001170305509704457 2.892319616308494 17.480503736295386
-0.6723359166869578 3.4409750146324773 16.971717744897845
-1.200277284386351 4.278339414144406 16.752157265377722
LINES 1 65
64 0 1 2 3 4 5 6 7 8 9 10 11 12 13 14 15 16 17 18 19 20 21 22 23 24 25 26 27 28 29 30 31 32 33 34 35 36 37 38 39 40 41 42 43 44 45 46 47 48 49 50 51 52 53 54 55 56 57 58 59 60 61 62 63
POINT_DATA 64
SCALARS MaximumInscribedSphereRadius float
LOOKUP_TABLE default
1.1160000562667847
1.1160000562667847
1.0321500301361084
1.0822399854660034
1.1751999855041504
1.0277400016784668
1.4626799821853638
1.7409000396728516
1.6469299793243408
1.5499999523162842
1.4212499856948853
1.2065800428390503
1.2039599418640137
1.3089799880981445
1.0026299953460693
1.4658299684524536
1.3361599445343018
1.3032000064849854
1.416100025177002
1.5840599536895752
1.963819980621338
2.0564000606536865
2.0821900367736816
2.844130039215088
3.372760057449341
2.249809980392456
2.188620090484619
2.369220018386841
1.977679967880249
1.6482199430465698
1.9937100410461426
2.4773199558258057
2.4800000190734863
2.2888998985290527
2.4788599014282227
2.660409927368164
2.3060200214385986
1.8326400518417358
1.5598100423812866
1.2988300323486328
1.7080999612808228
1.680690050125122
1.8687100410461426
2.356379985809326
2.2158799171447754
1.748289942741394
1.7174400091171265
1.8689899444580078
1.8792400360107422
1.863420009613037
1.8789700269699097
1.9286400079727173
1.7417199611663818
1.7862499952316284
1.801859974861145
1.717900037765503
2.4057300090789795
2.69608998298645
2.7899999618530273
3.2407500743865967
3.203629970550537
3.075939893722534
2.8959100246429443
2.4986000061035156
