# vtk DataFile Version 2.0
Vessel Segment
ASCII
DATASET POLYDATA
POINTS 64 float
-2.49032070127161 -14.552648989935165 -0.6446518205415069
-2.2522705765514606 -14.436431538234313 -1.658787162249306
-1.9485612419815637 -14.14041938292465 -2.5371168030477116
-1.5666646753315678 -13.587756559310822 -3.3003157304166293
-1.1788861725246527 -12.809198204360356 -3.820014621107872
-0.8319642056696899 -11.916622629732075 -4.15380645764974
-0.5220921842292624 -10.98318932453641 -4.402902126885844
-0.23368012710933306 -10.038841835186847 -4.636265207472055
0.03014585991919852 -9.093572728198254 -4.893492204022178
0.22521886876696556 -8.144864496184242 -5.194826003612095
0.22046375839981072 -7.191806101392258 -5.540987989488922
-0.22724606831274308 -6.343894788749732 -5.84715098102952
-1.0571226632986357 -5.7794560935339065 -5.975037495058423
-1.9988081107322455 -5.404696380878805 -5.947210133740542
-2.9542292621216064 -5.091382357983226 -5.812312153167238
-3.8845545913394757 -4.75791627794022 -5.583563727498979
-4.736054262659889 -4.3230545732176875 -5.247794682151026
-5.349486403837429 -3.672373797480542 -4.777208769785041
-5.317620293749633 -2.812306485086932 -4.27081039217941
-4.620431925698387 -2.133700532385518 -3.9985538801465497
-3.6734315279964154 -1.7805282321576477 -3.9484590989720085
-2.664583431264904 -1.7275618099553056 -4.021868461497205
-1.6827472162965351 -1.9534189220387588 -4.129793943152686
-0.7837875419693535 -2.419803434070412 -4.160589626216216
-0.011236169234967666 -3.042755295694104 -3.9600037700519195
0.571532748052991 -3.600719769537751 -3.3546964089396223
0.8992743007240688 -3.728922327730894 -2.4117619751740933
1.018902424413295 -3.3677705389129358 -1.4752913090204443
0.9918075126697768 -2.6867799877772858 -0.726983586888165
0.817258428802789 -1.8212637700150656 -0.23140598529649883
0.4792094094951991 -0.8934579763559733 -0.00683595310470545
0.0 0.0 0.0
-0.5584156764088494 0.8420605488246727 -0.0921535075580548
-1.129776174444047 1.6773775607470616 -0.16370651081229246
-1.6326619096323713 2.5559337026042104 -0.11055486744344917
-1.9630024908862274 3.4795943101394906 0.14131682949465643
-2.0587476715320268 4.378483940273818 0.5980716317164905
-1.94596787717222 5.172496181198253 1.2174468686957114
-1.6884608959295089 5.80680404085571 1.9648491155139876
-1.3453456579999792 6.224243635986104 2.8219513115059596
-0.9785935506561254 6.356545813192672 3.7565861563002767
-0.6577961568003577 6.183672643099787 4.701678987050606
-0.42562631899717795 5.777879870481467 5.601278336308715
-0.28131314264627977 5.245577731262218 6.45265669587572
-0.20576062520409627 4.667843544220494 7.283151441245289
-0.18206270205668953 4.091453151077199 8.117747664897433
-0.19703874528370535 3.532405045656576 8.964290817145722
-0.23442200427867496 2.9771315985212774 9.812654509903957
-0.2712968261022528 2.4017332943894836 10.647455759181819
-0.2820089569183979 1.80355235828298 11.466872776292794
-0.2500222840147171 1.2165748886657088 12.29373302903653
-0.17240248047569975 0.7048429549023677 13.166020648581712
-0.05918902563485089 0.35466028261832816 14.110486026674081
0.07088401292933189 0.25486721489862824 15.110223781589706
0.20123775590532553 0.44492441254035525 16.09665895607804
0.33337187273998353 0.8915737073849466 16.99676338988532
0.4880197684240378 1.5272411499404022 17.771189373820068
0.6946423683929016 2.2870948933004076 18.410157383292443
0.9804525245755179 3.114029509503689 18.92301907698394
1.364871010767817 3.952792948446315 19.344150093530928
1.8563602723740973 4.7470151890276435 19.74019520348417
2.4494061559514613 5.426204438754266 20.21210990792577
3.0645495120076887 5.8878677641819035 20.815567200521517
3.6552349406055704 6.0696890435321595 21.659776323813304
LINES 1 65
64 0 1 2 3 4 5 6 7 8 9 10 11 12 13 14 15 16 17 18 19 20 21 22 23 24 25 26 27 28 29 30 31 32 33 34 35 36 37 38 39 40 41 42 43 44 45 46 47 48 49 50 51 52 53 54 55 56 57 58 59 60 61 62 63
POINT_DATA 64
SCALARS MaximumInscribedSphereRadius float
LOOKUP_TABLE default
0.6200000047683716
0.9592120051383972
1.132040023803711
0.9556030035018921
1.1413099765777588
1.1058800220489502
1.1040199995040894
1.444849967956543
1.5499999523162842
1.3908699750900269
1.0093899965286255
0.9130529761314392
0.7168740034103394
0.7810840010643005
0.9655179977416992
0.9841369986534119
1.0814000368118286
1.2331899404525757
1.2400000095367432
1.2952300310134888
1.4932399988174438
1.5499999523162842
1.5499999523162842
1.5431100130081177
1.3431799411773682
1.0727499723434448
1.2000700235366821
1.4614100456237793
1.2637300491333008
1.2542699575424194
1.4124200344085693
1.3500299453735352
1.0144100189208984
1.1467599868774414
1.1050200462341309
0.879393994808197
0.7113670110702515
0.9959930181503296
1.2400000095367432
1.2934399843215942
1.5145599842071533
1.5809999704360962
1.5809999704360962
1.5879000425338745
1.7852100133895874
1.7605299949645996
1.5727900266647339
1.7974300384521484
1.8729599714279175
1.8600000143051147
1.8430099487304688
1.7057100534439087
1.6873799562454224
1.832069993019104
1.4574600458145142
1.2400000095367432
1.345170021057129
1.7075200080871582
1.726930022239685
1.6344599723815918
1.8077000379562378
1.6812599897384644
1.563689947128296
1.5809999704360962
