# vtk DataFile Version 2.0
Vessel Segment
ASCII
DATASET POLYDATA
POINTS 64 float
-1.2991753141177007 -15.711214606563086 -0.3556554758106702
-0.6014047398555644 -14.954775008502036 -0.5400059530067967
-0.047708545888098135 -14.20715598812232 -0.8519397987542805
0.45713504188993814 -13.417860421988918 -1.2450721452574336
0.8909887817924121 -12.613131391748045 -1.686164751318316
1.2447062617878004 -11.78168890280308 -2.147104486457944
1.4915828628426955 -10.902197271535844 -2.5876551714681133
1.5794885818366704 -9.956663980000938 -2.9414727339265525
1.458786721453674 -8.971398900570797 -3.1435003957059626
1.1479181775397787 -8.009215479497215 -3.219057941144187
0.7077100073884893 -7.096766540323336 -3.2692078167657126
0.1768839637617442 -6.238506365669638 -3.3711543382169165
-0.4336977868002289 -5.449007556839604 -3.5514023943914257
-1.1343795536574204 -4.75836560543832 -3.7970225073166413
-1.948980518020252 -4.218042725027429 -4.065003440325336
-2.8874111329797247 -3.9024670682564304 -4.277650179339906
-3.896541399374099 -3.850651431766921 -4.342580372993076
-4.891705945185405 -3.9975719059254238 -4.219642461288393
-5.8309763247488 -4.231997001358711 -3.9183665307406375
-6.701431671511698 -4.451886569125767 -3.4473379251663916
-7.471389125717205 -4.535753008558999 -2.796037151643454
-7.944830226259944 -4.2293511292331845 -1.967317073614309
-7.668751959390413 -3.4725157771356514 -1.37882715215434
-6.957418465538988 -2.7774148526807303 -1.1877799772939628
-6.104647402957534 -2.2299866871278047 -1.1583316244364563
-5.182023042120502 -1.8100305466301112 -1.1906672087183983
-4.2187242321969505 -1.4953201398909821 -1.2359013307606932
-3.232413228463614 -1.2592776914456074 -1.262709868581161
-2.236961928836789 -1.0647245568466828 -1.2416448030982772
-1.252652433115751 -0.8539619156002423 -1.12339454637384
-0.3649427960562655 -0.5203318673433435 -0.7697555596996293
0.0 0.0 0.0
-0.1897561344501836 0.48109626051630494 0.8725811309759662
-0.5511441842287887 0.9033220161753841 1.7209838795264747
-0.9605170766047771 1.3066028280639546 2.55707343339102
-1.3681563740163387 1.7178249822580403 3.3902936056626056
-1.744476211185207 2.152861051100693 4.2259680092267775
-2.07170296925705 2.6084766065778298 5.0713323047205225
-2.3443045856537594 3.0537358911193127 5.94123956507596
-2.5639169688660064 3.4358323293851107 6.854697289530666
-2.730254081658547 3.6927425063267436 7.821452665856204
-2.835585471765091 3.767638103865573 8.826811922187062
-2.865007516278865 3.6361349378779058 9.831390735583053
-2.7992923746571488 3.3206575295454677 10.792519466712962
-2.6181034937199685 2.870878530037373 11.682988612335588
-2.3055689787321674 2.342642538206813 12.49013286298705
-1.8611837740012542 1.78991251812491 13.215024080874972
-1.3058360513960379 1.2538848311080883 13.873235720403247
-0.6756200881339008 0.7550195854412122 14.492172912385179
-0.012032188230440628 0.291415965470395 15.10381909599009
0.6456765631974348 -0.15125783925918354 15.736942852733046
1.2644847933541867 -0.5860316658947989 16.413116657761368
1.8190242907546121 -1.0141132634803298 17.14680449736393
2.292429887735084 -1.4184737884316132 17.947560043007442
2.6761602131305207 -1.7562866646708724 18.823368282344926
2.9667972420308075 -1.9483827817471322 19.775145389919004
3.165344630747936 -1.881191345325109 20.765485685549063
3.2913002258099087 -1.4909469624425593 21.6909594259924
3.38788168376976 -0.8571862491428881 22.47602422170671
3.493232421380105 -0.09711026769806663 23.139198247695912
3.627755768186865 0.7102252014914642 23.739422738938035
3.7980328200559774 1.500941377656898 24.35371111844225
3.9940983970016384 2.168833946278158 25.052239102601696
4.196927661901451 2.5049654217906787 26.01521376501437
LINES 1 65
64 0 1 2 3 4 5 6 7 8 9 10 11 12 13 14 15 16 17 18 19 20 21 22 23 24 25 26 27 28 29 30 31 32 33 34 35 36 37 38 39 40 41 42 43 44 45 46 47 48 49 50 51 52 53 54 55 56 57 58 59 60 61 62 63
POINT_DATA 64
SCALARS MaximumInscribedSphereRadius float
LOOKUP_TABLE default
1.2771999835968018
1.2947299480438232
1.4381799697875977
1.4579999446868896
1.3009899854660034
1.4382799863815308
1.27701997756958
1.0219500064849854
1.3558100461959839
1.762760043144226
1.9795700311660767
1.92507004737854
1.57437002658844
1.1165000200271606
1.1258000135421753
1.5677200555801392
1.8206900358200073
2.2231199741363525
2.4685699939727783
2.4800000190734863
2.4605000019073486
1.9802500009536743
1.8948999643325806
2.0915799140930176
2.02278995513916
2.00393009185791
2.3503000736236572
2.4800000190734863
2.3369300365448
1.9929499626159668
2.1470699310302734
2.1700000762939453
2.228149890899658
2.4058899879455566
2.317840099334717
1.994979977607727
1.4545400142669678
1.5822700262069702
1.8663699626922607
1.912179946899414
2.138930082321167
2.2485198974609375
2.187849998474121
2.0261900424957275
2.0922999382019043
2.059540033340454
1.8842600584030151
1.8829100131988525
2.1932199001312256
2.3521299362182617
1.9898899793624878
2.0516300201416016
2.3167099952697754
2.5320498943328857
2.1817100048065186
1.9354300498962402
2.0651800632476807
2.440890073776245
2.477440118789673
2.2678699493408203
2.0322299003601074
2.1569199562072754
2.699359893798828
1.8600000143051147
