# vtk DataFile Version 2.0
Vessel Segment
ASCII
DATASET POLYDATA
POINTS 64 float
3.1364029489295753 -11.011690470788508 -0.24401425202473295
3.2357395900580546 -10.214510718283789 -0.8917280212296541
3.380839128696248 -9.45669441947791 -1.526305046506733
3.4994976597027523 -8.67617277731291 -2.160342260226193
3.5354289628988385 -7.865799206241665 -2.7690341051110954
3.418140702362239 -7.020987432422036 -3.3163152841274077
3.061754778170237 -6.171258041987645 -3.7340630878215704
2.446827662408555 -5.396920325435155 -3.9480111442225647
1.6775496272484687 -4.7375527925525445 -3.972208996421929
0.8451207491273618 -4.1640977849066205 -3.888245598161164
-0.05298872809122358 -3.7079099828690563 -3.7768592673453454
-1.0476090027092475 -3.6161478997551684 -3.65034816542145
-1.9607108768142063 -3.974230709088217 -3.4066489301690717
-2.6893927067882197 -4.5602002176662975 -3.0180143392810317
-3.236215106924809 -5.251049332186896 -2.517192527235351
-3.6273514189730403 -5.982990985811652 -1.9346085759039373
-3.9022562888901735 -6.713258975830458 -1.2866478109851958
-4.104322196823515 -7.403728013703667 -0.5717158765210085
-4.259417379937535 -7.9920197592372935 0.23874253040895302
-4.333042502340778 -8.287857070024737 1.1990120456005908
-4.191798793789241 -7.8175569491264945 2.0510344434280556
-3.974749351563571 -6.873240566699586 2.333979721911511
-3.821777011430526 -5.876624719730196 2.243493742903453
-3.714310103109079 -4.931526300036043 1.8950323074302649
-3.5809642679984157 -4.094379655736001 1.3401256992161024
-3.344083403917846 -3.3938634966536854 0.647187862819113
-2.9635769947775272 -2.811453894848275 -0.090210753181373
-2.4350863783293306 -2.288316590289395 -0.7793091377003444
-1.7600856757705685 -1.7362521718438442 -1.292830077820158
-1.00409528645633 -1.0798706861446774 -1.340708171717136
-0.4174089770213061 -0.4675353466453955 -0.7963785765718392
0.0 0.0 0.0
0.35527732730894535 0.3435119963756279 0.8854722311303183
0.6635450225008852 0.5291692098012309 1.8321838198137481
0.7206134676618469 0.3259138902606375 2.8050348167320736
0.22232572560463618 -0.32126353623759013 3.3936332729328376
-0.48781225182378346 -0.9640971315720565 3.726105598463038
-1.2815793860358302 -1.51606231372175 4.0323722678790315
-2.1279350720282832 -1.9288691977548784 4.407055617396705
-2.979938779228525 -2.110644563240295 4.921113608612759
-3.6943618708570405 -1.9248103113782302 5.606462786383195
-4.072849015256813 -1.382064289094376 6.368282413385577
-4.109448983314175 -0.696274545161798 7.112065499513332
-3.9168507070910965 -0.03220031608520635 7.853258974458748
-3.5910934460321147 0.5173236879906765 8.640260367183386
-3.200986241358347 0.8898285425393755 9.498198890352615
-2.768447262208417 1.0728662844573347 10.396578625761418
-2.2553429780427843 1.103778299772092 11.270348933647522
-1.6166264941126054 1.031624752716434 12.0540384866353
-0.8530857395209853 0.9085307796063995 12.709524121596624
-0.003819142846819606 0.7789134496104856 13.248687609597276
0.8907856720134348 0.6666096960825079 13.713722140914042
1.8022733041427732 0.5738466849414198 14.149612924523424
2.708775409859331 0.49061274864306037 14.597563139273385
3.583504953389872 0.4089885592886134 15.104597663481343
4.3769298198390825 0.33814114037613924 15.731368170365938
4.997892727768073 0.31911225950482397 16.530389188015207
5.342195046529254 0.4199182868829832 17.475825300161436
5.402669040084375 0.6852083830020186 18.450799653997944
5.279047316048673 1.1092789101997254 19.362902254179318
5.067432036891408 1.666783322543462 20.182832778162993
4.815954717251928 2.335208755760175 20.900307520585176
4.541012065677336 3.0956626966920813 21.487082233585266
4.216004924684091 3.987401036034921 21.887200382392965
LINES 1 65
64 0 1 2 3 4 5 6 7 8 9 10 11 12 13 14 15 16 17 18 19 20 21 22 23 24 25 26 27 28 29 30 31 32 33 34 35 36 37 38 39 40 41 42 43 44 45 46 47 48 49 50 51 52 53 54 55 56 57 58 59 60 61 62 63
POINT_DATA 64
SCALARS MaximumInscribedSphereRadius float
LOOKUP_TABLE default
1.2400000095367432
1.2686200141906738
1.6766400337219238
1.4225599765777588
1.1212300062179565
1.4517300128936768
1.2670799493789673
1.3122700452804565
1.5188000202178955
1.5571600198745728
1.5364500284194946
1.430999994277954
1.8600000143051147
1.787600040435791
1.5825300216674805
1.5499999523162842
1.5499999523162842
1.7237199544906616
2.140209913253784
2.297110080718994
1.758829951286316
1.7553900480270386
1.5148299932479858
1.6189199686050415
2.1897199153900146
2.25504994392395
2.2418301105499268
2.4753899574279785
2.399319887161255
1.9992400407791138
1.6964800357818604
1.8844300508499146
2.3877899646759033
2.324970006942749
2.722790002822876
2.2918999195098877
2.42864990234375
2.2733099460601807
2.192009925842285
2.327899932861328
2.4800000190734863
2.279949903488159
1.8914999961853027
1.8219000101089478
1.6083199977874756
1.7667299509048462
1.8600000143051147
1.6223299503326416
1.3832299709320068
1.7488000392913818
2.4726901054382324
1.8085700273513794
1.7290799617767334
1.7398799657821655
1.6371599435806274
1.7982499599456787
1.6554499864578247
2.1369500160217285
2.0657401084899902
2.579210042953491
2.8753299713134766
2.65339994430542
3.006239891052246
2.7899999618530273
