# vtk DataFile Version 2.0
Vessel Segment
ASCII
DATASET POLYDATA
POINTS 64 float
-6.473571281080042 -15.837643764447673 -1.2141342395145225
-5.768422511443743 -15.06651871916029 -1.266501135036468
-5.006687361643783 -14.467011604051336 -1.3563922402127482
-4.1467786263205575 -13.917356334133142 -1.457436978554854
-3.2564563666175186 -13.442545966566586 -1.5442379306755247
-2.3454433971971174 -12.999316040678861 -1.6009508065591265
-1.432339740439234 -12.55730508731761 -1.6188785383278206
-0.5357760519361598 -12.082980544085897 -1.597306755367175
0.3202022849203978 -11.540928359113797 -1.5462213647634817
1.101356624967637 -10.896326184866878 -1.4910717516922847
1.7515657811645986 -10.118429924585634 -1.4773580829116721
2.1803005217364273 -9.20532538824341 -1.5707810171631005
2.295809482128443 -8.231196740315351 -1.8213497255315076
2.0851074265886957 -7.31655785161903 -2.2025900937844427
1.6065216078906328 -6.531068932647376 -2.628495744138414
0.9236989726211681 -5.884850537736284 -3.0079659221788826
0.09391506490568421 -5.361799142333411 -3.2646168887031886
-0.8188136139007459 -4.929685237334834 -3.357605647231973
-1.7553229594184423 -4.544792590062632 -3.2968889441476583
-2.6796180445837425 -4.1653833025325095 -3.1211159844091747
-3.5738028500178434 -3.7574433357610304 -2.8695282323014815
-4.423851981979525 -3.291625437468302 -2.570411926661244
-5.2061800024475975 -2.7358635383873997 -2.2412891591854334
-5.859495003754491 -2.0430216969510884 -1.892142276615872
-6.164832164652191 -1.14839263790076 -1.538806048564158
-5.7244725419207985 -0.29502045834136115 -1.2815355533281794
-4.8248692797598425 0.1652042519077501 -1.156188448881151
-3.8368878910013318 0.371233960172395 -1.0608274728891582
-2.8311083282101412 0.4244966853955388 -0.9405759855183422
-1.8353718780212516 0.3652367441508525 -0.7562049663710175
-0.8763726934138002 0.21548439634361602 -0.4619950265640076
0.0 0.0 0.0
0.7157336208486816 -0.2282425362458859 0.6799503561119157
1.1946663408913292 -0.3780684783085864 1.5599853019775949
1.438532220679442 -0.3737888433487373 2.5438143203539645
1.5222097646002863 -0.20611115870228805 3.5405294047714984
1.5238194186934917 0.09217500695584512 4.510102537079729
1.495055735332876 0.48270849198555793 5.445954983102577
1.4664667190255387 0.9329553640533584 6.354708712336906
1.454001220583069 1.414253051241537 7.247773679387492
1.4612390822618664 1.9004927811847074 8.138324302666524
1.4783037764424511 2.3668393527904588 9.039168135619644
1.4839058810301387 2.789026392288185 9.961722270785556
1.4534199835572685 3.14015534938318 10.912926893145967
1.3665023272005752 3.389942121166283 11.892225496651264
1.2184281068392468 3.508376069142239 12.888582181833238
1.0261928954386854 3.4751727603338165 13.883934802535567
0.8188180074942493 3.285870061208615 14.858579700899714
0.6245849253965118 2.952052946402899 15.796487902688826
0.4631146435495209 2.495252422616394 16.687681421663935
0.3441923512662949 1.9414979507147658 17.52930492384453
0.2696981657978542 1.3163952744535545 18.324865897511568
0.23712419478296623 0.6424728205947132 19.08253464592362
0.24355695233357386 -0.06146473926314129 19.81313968153334
0.28744034229505544 -0.7798130292296637 20.528328532741007
0.3682916825694282 -1.499272283906926 21.239077121690464
0.48508934206732707 -2.207187978522235 21.956488916641163
0.6326718048995954 -2.8872866774746355 22.69473546310004
0.7963134932123787 -3.509115887638182 23.479396424063022
0.9427581652538194 -4.006527962619939 24.35093176901571
1.0151447132856477 -4.258714785580608 25.32773964827385
0.96364459102889 -4.160833108412323 26.3442851985168
0.821803196551057 -3.815835436637517 27.243429824964288
0.6021086688186208 -3.267336229676122 28.1070822517094
LINES 1 65
64 0 1 2 3 4 5 6 7 8 9 10 11 12 13 14 15 16 17 18 19 20 21 22 23 24 25 26 27 28 29 30 31 32 33 34 35 36 37 38 39 40 41 42 43 44 45 46 47 48 49 50 51 52 53 54 55 56 57 58 59 60 61 62 63
POINT_DATA 64
SCALARS MaximumInscribedSphereRadius float
LOOKUP_TABLE default
0.9300000071525574
0.9300000071525574
0.9300000071525574
0.9503980278968811
1.0981500148773193
1.1945500373840332
1.0246299505233765
1.041100025177002
1.2102199792861938
1.2400000095367432
1.2955800294876099
1.3606499433517456
1.3559099435806274
1.4967000484466553
1.2441099882125854
1.226699948310852
1.602489948272705
1.6667699813842773
1.61735999584198
1.5007599592208862
1.3503799438476562
1.54721999168396
1.83542001247406
1.8241300582885742
1.3719700574874878
1.0470000505447388
1.1804900169372559
1.2620799541473389
1.2302199602127075
1.1601300239562988
1.0618599653244019
0.9447060227394104
1.137869954109192
1.2400000095367432
1.2400000095367432
1.2400000095367432
1.7077399492263794
2.165329933166504
2.1877501010894775
2.1865899562835693
2.171760082244873
2.0002999305725098
1.7449599504470825
1.388700008392334
1.5551600456237793
1.8345600366592407
1.6314400434494019
1.5499999523162842
1.5008100271224976
1.3511600494384766
1.3729599714279175
1.5450400114059448
1.7309800386428833
2.0755701065063477
2.6325199604034424
2.494379997253418
2.2059099674224854
2.176330089569092
2.3460299968719482
2.46055006980896
2.3603599071502686
2.1264901161193848
1.9687399864196777
1.8600000143051147
