# vtk DataFile Version 2.0
Vessel Segment
ASCII
DATASET POLYDATA
POINTS 64 float
-9.607409921874247 -20.463281134904438 -0.33534526043912855
-8.81758427873002 -20.25214613996087 0.019914219563143137
-7.704739300559521 -19.931699050168834 0.3058535782421172
-6.800128799164292 -19.631995006414098 0.26186947392285187
-5.844251295292646 -19.28444944610949 0.14922482364291176
-4.913915809134426 -18.903341716276973 -0.0158316969236098
-4.009587829309952 -18.47959256212328 -0.17696013242179792
-3.1189987562198738 -17.997113996121282 -0.26085353731285044
-2.263990389403696 -17.451150226024055 -0.2001506264854069
-1.4845414205947267 -16.85736219953366 0.06631348804052313
-0.8127249484918514 -16.25237090541608 0.5303475473328356
-0.24802176766474285 -15.664645008575782 1.1365095729622003
0.24611168627248575 -15.096239148655938 1.8164937755914743
0.7105151962748493 -14.530425809880633 2.5191212277988146
1.179898259137761 -13.9412313157472 3.1991973038625345
1.6805844060860922 -13.295455732775993 3.8014138826927226
2.2229987156286315 -12.559232482506578 4.248154027110317
2.7711707910533763 -11.729579593721075 4.452203154772552
3.263930191053955 -10.841132863670818 4.391322706823856
3.6477372267745665 -9.941058984506014 4.117443720325674
3.9107092785319337 -9.047261936340838 3.7130943995084125
4.055020160632271 -8.16158851891448 3.238421475292314
4.0849288104472095 -7.281305432617001 2.7338068214637716
4.003109996362524 -6.404917041199854 2.2282419387633605
3.8118909627474817 -5.533395960858623 1.7441993477850204
3.51466144174 -4.670481911705426 1.2999766688867969
3.1166972833070354 -3.8219168291724364 0.9100668050215666
2.6261423497096352 -2.994777185067781 0.5846180526919911
2.0552064777595724 -2.1965866090497257 0.32868109870770285
1.4150414351982632 -1.429603181718246 0.14186933527006237
0.7220661482773012 -0.6960970465390957 0.026440950265195728
0.0 0.0 0.0
-0.7825118365561373 0.6935647601397136 0.1014095122881919
-1.4318849813367334 1.2919337626868228 0.5544771817022653
-1.6017610180828379 1.5962059206248578 1.5237715347945748
-1.3177427941430395 1.5771848685267993 2.5053435537690847
-0.8242001933189862 1.3807718699667875 3.3768865600635865
-0.29109925540969195 1.1121354446056069 4.195256080792552
0.27206714796448694 0.7551783559416745 4.960264585688991
0.8324301569379355 0.30577498701938866 5.678350645867627
1.3564124979013394 -0.24331434581096156 6.35202029970934
1.8129360709539677 -0.8954625566011526 6.982166374244289
2.1716491488032905 -1.6381139316517483 7.574283839755004
2.415920627739364 -2.4431161557617083 8.142351376001178
2.544465699757836 -3.2767014288620455 8.707328001615371
2.5660128852339437 -4.103941603899844 9.295029465873988
2.4920332639816056 -4.890899265389037 9.932171666140107
2.3310298331724364 -5.5982648606428045 10.643062905884795
2.0904922474726244 -6.175324714621646 11.443619942584194
1.7823185470418217 -6.564252245856194 12.331247971449331
1.4309465217858324 -6.721574488336977 13.271202180774349
1.065260344900354 -6.65631683725816 14.217280310231546
0.7074595771769341 -6.4165540395045895 15.137011702639276
0.36675089949308837 -6.063880928087182 16.025506008565387
0.04594750583903033 -5.645795352593101 16.89272831746973
-0.2535984388758159 -5.198483268148139 17.75262158890897
-0.5286069929056374 -4.750212675675369 18.620289323539158
-0.7719906264961823 -4.324854530918479 19.509938409674355
-0.9752060120985264 -3.9429890977563975 20.424499764774424
-1.1180078168754368 -3.629844691361636 21.384090588947547
-1.1829633906371575 -3.407361851335302 22.381970553281697
-1.176685079662649 -3.2797130740955467 23.320687681888202
-0.9832044963904543 -3.3244868143796262 24.504520592256917
-0.7732326570157423 -3.4327476861528883 25.360523575723036
LINES 1 65
64 0 1 2 3 4 5 6 7 8 9 10 11 12 13 14 15 16 17 18 19 20 21 22 23 24 25 26 27 28 29 30 31 32 33 34 35 36 37 38 39 40 41 42 43 44 45 46 47 48 49 50 51 52 53 54 55 56 57 58 59 60 61 62 63
POINT_DATA 64
SCALARS MaximumInscribedSphereRadius float
LOOKUP_TABLE default
1.2400000095367432
1.2400000095367432
1.2400000095367432
1.2400000095367432
1.2400000095367432
1.2590899467468262
1.2858500480651855
1.3102600574493408
1.291290044784546
1.520259976387024
1.797760009765625
2.0139999389648438
1.4998600482940674
1.115190029144287
0.8480939865112305
0.7079759836196899
0.9486960172653198
1.0234400033950806
0.9455869793891907
0.9211620092391968
0.965470016002655
1.0657299757003784
1.2061599493026733
1.206969976425171
1.0907200574874878
1.0355900526046753
1.212249994277954
1.4543800354003906
1.587149977684021
1.633929967880249
1.6629999876022339
1.6694600582122803
1.7346299886703491
1.8629200458526611
1.9063600301742554
2.0604898929595947
2.03016996383667
1.7403099536895752
1.6696300506591797
1.7454400062561035
1.8879899978637695
2.03275990486145
2.029400110244751
1.8543000221252441
1.6331000328063965
1.7077100276947021
1.7623499631881714
1.7164299488067627
1.591480016708374
1.8344199657440186
2.0133700370788574
2.1227800846099854
2.1498100757598877
2.011509895324707
1.9134900569915771
1.8600000143051147
1.8600000143051147
2.052500009536743
2.2921500205993652
2.5366899967193604
2.6896800994873047
2.7681798934936523
2.7982099056243896
2.7899999618530273
