# vtk DataFile Version 2.0
Vessel Segment
ASCII
DATASET POLYDATA
POINTS 64 float
-5.683990014113013 -13.940341199395618 0.47777891713848397
-5.06282310047049 -14.144948428637996 -0.3346468215048647
-4.4399786956379215 -14.099671122631499 -1.085622162586171
-3.7551582568311788 -13.843177885450633 -1.803723034351475
-3.0550296240161554 -13.384052786721634 -2.371955484578672
-2.336313104896206 -12.776227187863402 -2.7494913365498164
-1.6185207100935408 -12.077042249647116 -2.9046216747018367
-0.9258428697526827 -11.337477448019785 -2.8606863915165346
-0.27734529845046274 -10.57739318859204 -2.68477685596687
0.3123658534809246 -9.782545383847228 -2.462074092237986
0.812158747315551 -8.91498200436094 -2.299538423984941
1.1157259426163029 -7.9524488258489034 -2.383030240316207
1.1015079785499502 -7.038563012640462 -2.817893321314113
0.8763584918869686 -6.24819326060485 -3.4120907204818516
0.5586290335560758 -5.494986817002276 -4.013034386197909
0.17197809194063135 -4.726733695722625 -4.5509396746866875
-0.3196218322210606 -3.9518951175448804 -4.9830797529786475
-0.9706971666405149 -3.2375812977506406 -5.2894486429924115
-1.7718050181444145 -2.645167054913885 -5.4783664132078815
-2.660289546393308 -2.1642593068789804 -5.569980150576125
-3.586122594984438 -1.750163420138919 -5.568677844507684
-4.518279671624685 -1.3645758932424146 -5.4515234904521455
-5.406000853874546 -0.9847911321440432 -5.154295755525259
-6.073831681563909 -0.616654489330089 -4.491290697123732
-5.876149237504353 -0.47488030568830103 -3.5194181525206596
-5.11102757467708 -0.5670905310281673 -2.855867440137865
-4.231706938131807 -0.7043386460794892 -2.3727650752263845
-3.309854043159488 -0.8253155109922201 -1.9656337732708602
-2.3801466431600566 -0.8753874011043865 -1.5628894705640917
-1.476137187824094 -0.7896357662388206 -1.1111897985371622
-0.6601031276012821 -0.5018949466487451 -0.5831353782266819
0.0 0.0 0.0
0.4816915068068902 0.6612177647112295 0.5994372423527706
0.8049582283951809 1.4107827453419213 1.201581477597014
1.003208875948751 2.185387444725126 1.8260139125016086
1.1107189044122687 2.9280624235212787 2.508529546457848
1.1620713367333368 3.58297218399803 3.281493311936093
1.1939444713017755 4.096313401379935 4.155523094856651
1.2348541802138318 4.44291540806905 5.107820856083955
1.2857041621162297 4.646517758652416 6.100322589213664
1.320243633469247 4.753216123541999 7.108631448353241
1.3089346558093282 4.793144788659142 8.122333724046607
1.2385215980464492 4.763262539077324 9.133924182527524
1.1178200862828298 4.639268442321914 10.133526109042446
0.9727091759110568 4.396353927049035 11.107661844101385
0.8353576550195972 4.0289792964898306 12.043184007890572
0.7318144982245722 3.5557444113312218 12.93451376749996
0.6758721608329675 3.0084788118838244 13.786920508656822
0.672453252848496 2.421593750764298 14.614513590936443
0.7202324543358811 1.828620727687106 15.436416775815637
0.8051314656077593 1.2616510941975747 16.273499935863565
0.8806433882176269 0.7439321306185779 17.142703152800273
0.85844809177109 0.28128202663885593 18.045037558301427
0.670081430169654 -0.12895064118398317 18.953289817411093
0.3462348287931332 -0.4858236421323599 19.846013612567365
-0.03301294851080911 -0.7831883355932905 20.738826998048378
-0.3895739489390222 -1.0068962309142495 21.661840905495477
-0.6472329070510188 -1.1359859865951705 22.634278753800448
-0.7338660479367078 -1.1492953099251586 23.644390471534898
-0.621160812415737 -1.0452414288592848 24.64723587710113
-0.34615018173992707 -0.8479718260702265 25.60027937864368
0.03590587104597518 -0.5743283224040394 26.513946037068596
0.4393641748930092 -0.26516498437895397 27.346412029848413
0.84869634057124 0.1272684414776282 28.222329565234368
LINES 1 65
64 0 1 2 3 4 5 6 7 8 9 10 11 12 13 14 15 16 17 18 19 20 21 22 23 24 25 26 27 28 29 30 31 32 33 34 35 36 37 38 39 40 41 42 43 44 45 46 47 48 49 50 51 52 53 54 55 56 57 58 59 60 61 62 63
POINT_DATA 64
SCALARS MaximumInscribedSphereRadius float
LOOKUP_TABLE default
0.9300000071525574
1.2841800451278687
1.4865800142288208
1.308650016784668
1.2400000095367432
1.3599799871444702
1.7367099523544312
1.744189977645874
1.5412399768829346
1.3413699865341187
1.3719799518585205
1.4623199701309204
1.2410800457000732
1.2831300497055054
1.5580999851226807
1.7412699460983276
1.5868300199508667
1.3945300579071045
1.2771999835968018
1.2967400550842285
1.4324699640274048
1.6087199449539185
1.591480016708374
1.5499999523162842
1.5560200214385986
1.6553399562835693
1.8050600290298462
1.711940050125122
1.6447399854660034
1.804800033569336
1.8600000143051147
1.7827500104904175
1.601989984512329
1.5499999523162842
1.5499999523162842
1.5631300210952759
1.6982699632644653
1.8503299951553345
1.8651700019836426
1.7293299436569214
1.5770599842071533
1.5470399856567383
1.437600016593933
1.4029300212860107
1.68271005153656
1.9669599533081055
2.1476399898529053
1.9996700286865234
1.9556100368499756
2.331969976425171
2.250119924545288
1.889430046081543
1.5748599767684937
1.1807399988174438
1.182919979095459
1.6751099824905396
1.5859099626541138
1.312000036239624
1.2476500272750854
1.1040300130844116
1.0127899646759033
1.1507200002670288
1.3580100536346436
1.5809999704360962
