# vtk DataFile Version 2.0
Vessel Segment
ASCII
DATASET POLYDATA
POINTS 64 float
-2.4439850918179986 -17.512502891691728 -1.4057613243275098
-1.9027470538755846 -17.337584032121374 -2.2825320257451613
-1.4151136515729692 -16.8640477784191 -2.989108540636903
-0.99879741985933 -16.097488108648452 -3.504440969390611
-0.6841722564976279 -15.189985286065077 -3.8306872965934335
-0.42966236911043965 -14.242759646263574 -4.090150122801455
-0.2084633450646431 -13.298339239251408 -4.387227883001833
-0.028117628297320608 -12.385248021411565 -4.790028137550915
0.07505230554669613 -11.529354098000969 -5.323775559703458
0.05116212191194643 -10.739338969858546 -5.9588963758972495
-0.15012124584783074 -9.997819346924768 -6.620215711410188
-0.5748949268348882 -9.285692915732042 -7.202067011956528
-1.236552318711888 -8.619954259170434 -7.580373023627515
-2.067865578640729 -8.052114010310147 -7.68849811226909
-2.9690740008473884 -7.605805776147651 -7.562772519570974
-3.8761749590944596 -7.268504347155489 -7.261341593941298
-4.748623806150988 -7.023168169983229 -6.804481146118487
-5.507609873153822 -6.864216759317495 -6.1392604458657205
-5.51613339655985 -6.843340431176694 -5.2017998042045495
-4.664328814518016 -6.897482099375423 -4.653042961454752
-3.706372128697395 -6.920261838750173 -4.320658231698129
-2.728105749019137 -6.892702384464065 -4.053134474840893
-1.7528815900614512 -6.7881430021559686 -3.794153053688377
-0.8099716261573395 -6.5553054581933505 -3.503183529344461
0.017965079274382158 -6.1021687061995555 -3.137484683253222
0.551112808941269 -5.36813324928141 -2.6944052559632823
0.7176358864333632 -4.474933271908504 -2.247413039776785
0.6659679387160966 -3.5521900518007676 -1.8297671810174552
0.5233349681024789 -2.6335354934078334 -1.423404747514185
0.34988294207392917 -1.7271594208227623 -1.0019316553549933
0.17226227664664795 -0.8428330692762502 -0.5373736735925954
0.0 0.0 0.0
-0.1684831670511673 0.7695603897966188 0.6387892490541113
-0.3401975660420687 1.4207189969865 1.3966870570668886
-0.5187249847366462 1.9054678373833684 2.2687833601120464
-0.6961728635774741 2.19316336666444 3.224414976183294
-0.8519497647117106 2.2828658623415006 4.222177074544101
-0.9606124749481497 2.1974480248767043 5.2267224151052
-1.0001060014094048 1.9693610560089745 6.2140738669375875
-0.9574959880087688 1.632296081187224 7.169726487251511
-0.8316338740231994 1.2172810821991358 8.08670404971374
-0.6306741768722213 0.752253644059985 8.965608281471468
-0.3666560836850977 0.26275677338457376 9.814090788152317
-0.05178421659999657 -0.22473810746354714 10.646255970642278
0.30345041886114854 -0.678897936961423 11.481047545758535
0.6901239431965173 -1.0600694954278935 12.337867223953891
1.098733948234426 -1.3189960741213917 13.229150406884099
1.5145753243273181 -1.4030820681216938 14.149925112006805
1.9148565321601518 -1.2774760110899415 15.072578800631337
2.2713839971521157 -0.9425557640521101 15.960392951471938
2.5571987155452867 -0.42962171485435297 16.786845495503936
2.753129003753031 0.2187346435171283 17.541578676237187
2.8485723077927396 0.9637095844631052 18.22296138480394
2.8395760390063685 1.7781917652395702 18.827229487513456
2.7234567255334836 2.6458073598444467 19.339244504366526
2.494767785542399 3.5534767586141665 19.728853111923495
2.1519092252530676 4.478978244103662 19.960221052198783
1.7090680524130735 5.389043532503662 20.020097126043673
1.1948570682171225 6.259381009211204 19.938643729821564
0.6363051766535526 7.0900087201736595 19.77383089336816
0.050686303002549414 7.898157582517748 19.587826287919935
-0.5492562471273799 8.705236172999253 19.44200506413217
-1.127309635117812 9.496669763804562 19.393957048401386
-1.7059891159040756 10.355033352726254 19.54040291697301
LINES 1 65
64 0 1 2 3 4 5 6 7 8 9 10 11 12 13 14 15 16 17 18 19 20 21 22 23 24 25 26 27 28 29 30 31 32 33 34 35 36 37 38 39 40 41 42 43 44 45 46 47 48 49 50 51 52 53 54 55 56 57 58 59 60 61 62 63
POINT_DATA 64
SCALARS MaximumInscribedSphereRadius float
LOOKUP_TABLE default
1.2400000095367432
1.0900399684906006
0.9771310091018677
1.147279977798462
1.25246000289917
1.308859944343567
1.7198100090026855
2.02101993560791
1.8401399850845337
2.014739990234375
2.314310073852539
2.22586989402771
1.9519100189208984
1.6042200326919556
1.4226800203323364
1.4197399616241455
1.7924000024795532
1.6908700466156006
1.6814600229263306
1.5592299699783325
1.4338099956512451
1.8850599527359009
2.083430051803589
1.8900099992752075
1.8600000143051147
2.0935699939727783
2.4204800128936768
2.08243989944458
1.8791600465774536
1.8657900094985962
1.8600900173187256
1.8600000143051147
1.8600000143051147
1.8600000143051147
1.8600000143051147
1.8333300352096558
1.7776700258255005
1.8023699522018433
1.8535499572753906
1.8600000143051147
1.9225900173187256
2.100399971008301
2.0624499320983887
1.9453799724578857
2.180310010910034
2.3687899112701416
1.8172600269317627
1.5610899925231934
1.6751400232315063
2.1322500705718994
2.2616899013519287
1.915369987487793
2.1691501140594482
2.399090051651001
2.2726199626922607
2.2581300735473633
2.4486100673675537
2.6384201049804688
2.690609931945801
2.3615100383758545
2.258049964904785
2.437959909439087
2.739459991455078
3.0999999046325684
