# vtk DataFile Version 2.0
Vessel Segment
ASCII
DATASET POLYDATA
POINTS 64 float
-2.4366904324563614 -14.657993726966543 1.6922922986173488
-1.856666718427557 -13.949386820158654 1.1867533489855082
-1.3259876797056944 -13.279036322862419 0.7049719026772877
-0.7810303247684568 -12.578774390942579 0.21016529190902392
-0.18008353201437946 -11.918057585709732 -0.27129579258485315
0.40351759007167876 -11.247434670583724 -0.7596545881259685
0.9474943717679272 -10.560257120557528 -1.2701891949021467
1.4366861082080429 -9.830554523951333 -1.7760333602668112
1.6853224630397012 -8.934871776412429 -2.1782308328973494
1.6587156366357565 -7.953332407762688 -2.42271163932576
1.386277050635289 -6.9799361716719135 -2.490331613470824
0.9579003315293791 -6.063206832687447 -2.423565261279617
0.44788053678383466 -5.198609693533174 -2.27727725897908
-0.10900048752922822 -4.372277684334366 -2.0867118675095537
-0.7108651387729539 -3.5859213001309116 -1.866260908735614
-1.379020015687572 -2.8650687593138224 -1.6157765021955401
-2.1415313807438507 -2.262170337054279 -1.3277816582717616
-3.000820092224501 -1.838726253124451 -0.9968437230147198
-3.9170050931135196 -1.6182219965362745 -0.6231336349234973
-4.838607682578355 -1.5671816283057602 -0.20295635164839154
-5.726477648055946 -1.6274986291209697 0.28346046250361506
-6.5338269367089525 -1.731934945783903 0.886308869732173
-7.0912467765579095 -1.761383881593983 1.7327771263769853
-6.796173919027313 -1.489886100866126 2.6309771329105853
-5.962551769419195 -1.0966363086180642 3.0457860923026625
-5.025928022296408 -0.7169564113587545 3.094660475800302
-4.108553379056763 -0.3882027659265348 2.8207320718951663
-3.275981218388994 -0.14017637658835905 2.2984247790304946
-2.5098802915881238 0.0224548578532595 1.6538059749585377
-1.748052608419751 0.10470796632597422 0.9890779740743432
-0.9267513781354082 0.10242392999638321 0.3943446494246576
0.0 0.0 0.0
0.987906843918615 -0.20598254440538485 -0.0025290868594250674
1.8535668040194997 -0.4612217324013814 0.4518468885022019
2.4936850647034308 -0.7012572775126308 1.1989725992245865
2.9145923566083902 -0.9004569427913793 2.0989720256629676
3.104435081464157 -1.0402775858559539 3.0841394636074795
2.9837133553450337 -1.0827316610064306 4.087601730481699
2.4501949663336386 -0.9686964810312191 4.935262715532529
1.6268628773958558 -0.7087379664792485 5.462838323784397
0.7249464997839682 -0.3645749221956707 5.7737358511057355
-0.17160116956648572 0.04262246150005129 6.01787267119181
-1.0183817474763004 0.5170785714203325 6.3116597523452995
-1.743956760327576 1.058680860227478 6.765812545980124
-2.2263189083027632 1.6211826751246523 7.4539070470896265
-2.3783357072211775 2.103239608581455 8.330194189777691
-2.2516630435495264 2.4282196763838355 9.2809574148235
-1.9375854919558306 2.55500230565334 10.235834968345035
-1.5099583483664203 2.4550707506997207 11.148941978919936
-1.0376249371753252 2.134334825653523 11.986375225195413
-0.5747558103153229 1.6352882169730305 12.737932309689572
-0.14204923387046792 1.0195211035998928 13.418027375654024
0.2686742683411685 0.34088685517204853 14.050546891503773
0.6716191026672937 -0.3673214010528473 14.655043168136228
1.0714649175963302 -1.0898515046472224 15.244531937736706
1.4586101096859825 -1.821948967794863 15.830675547564692
1.8162835625754195 -2.5599842718647245 16.427960165617858
2.1301927472152693 -3.2942660078636385 17.053706658294313
2.3968997822221563 -4.0084457812206695 17.722985273312965
2.624598246364305 -4.680929668934077 18.447553102509257
2.828159275590862 -5.283071929914436 19.238652234030543
3.025818366456487 -5.77297841422976 20.10540997259688
3.2276985118199097 -6.090350326057955 21.013481376157614
3.472335704574151 -6.159948350679743 22.026131225028454
LINES 1 65
64 0 1 2 3 4 5 6 7 8 9 10 11 12 13 14 15 16 17 18 19 20 21 22 23 24 25 26 27 28 29 30 31 32 33 34 35 36 37 38 39 40 41 42 43 44 45 46 47 48 49 50 51 52 53 54 55 56 57 58 59 60 61 62 63
POINT_DATA 64
SCALARS MaximumInscribedSphereRadius float
LOOKUP_TABLE default
0.6200000047683716
0.8128970265388489
0.9249669909477234
0.9275879859924316
0.9030150175094604
0.8741999864578247
0.8741999864578247
0.9567170143127441
1.1325000524520874
0.831046998500824
0.748511016368866
0.8662139773368835
0.7025960087776184
0.7551779747009277
0.9468629956245422
1.138350009918213
1.2400000095367432
1.2190899848937988
1.072540044784546
0.9858090281486511
1.1645300388336182
1.2400000095367432
1.2400000095367432
1.5233500003814697
1.6606999635696411
1.2705399990081787
1.494379997253418
1.5809999704360962
1.5772199630737305
1.560670018196106
1.5499999523162842
1.5499999523162842
1.5499999523162842
1.5499999523162842
1.4596699476242065
1.189810037612915
1.0277199745178223
1.0086499452590942
1.251979947090149
1.6449899673461914
1.8511699438095093
1.844980001449585
1.7051899433135986
1.449620008468628
1.051110029220581
1.099410057067871
1.174589991569519
0.9778569936752319
1.0844600200653076
1.2270900011062622
1.250249981880188
1.37568998336792
1.5998799800872803
2.0471599102020264
2.0276200771331787
1.6604599952697754
1.561959981918335
1.398110032081604
1.0115400552749634
1.231950044631958
1.460919976234436
1.3307600021362305
1.3554799556732178
1.5499999523162842
