# vtk DataFile Version 2.0
Vessel Segment
ASCII
DATASET POLYDATA
POINTS 64 float
2.9364658365350698 -14.317154978865393 -0.318882986312888
2.9543401874605957 -13.90784833432429 -1.2806879671048006
2.8879000328790747 -13.362965240281243 -2.08541214118417
2.7320242244783963 -12.637627231121007 -2.7918661283887634
2.4947449517995737 -11.793228607904451 -3.297165900472651
2.205493349159796 -10.88069910465205 -3.6329162024896524
1.8890977333469003 -9.940709634529863 -3.8462378891478974
1.5547869803261136 -8.994184612860703 -3.99348837068246
1.191335388050255 -8.056244830771313 -4.126125024464852
0.7628170777892952 -7.151372499084077 -4.2891519918685015
0.20320913178779154 -6.337633775712873 -4.518744510609793
-0.5494004726521594 -5.726133006270853 -4.811784159942881
-1.4622248022464457 -5.3880720515430705 -5.09405533624483
-2.448844833522174 -5.268819562232078 -5.296426848776568
-3.458014197392815 -5.277630249897905 -5.398859432384848
-4.469775414443834 -5.351628224278902 -5.400776418374952
-5.474017232112558 -5.452403976008786 -5.298828158172368
-6.459154810137572 -5.550046828613903 -5.07622668343398
-7.391926621731218 -5.6080564378928885 -4.68667841588736
-8.14376161550685 -5.5485603800698575 -4.009721949866676
-8.255016709405002 -5.277357235256598 -3.050905931821626
-7.700675784044739 -4.943368288645048 -2.27081297179955
-6.886266242633676 -4.642386459781154 -1.7497814176340256
-5.968111931505478 -4.363442047671149 -1.4205354911859764
-5.012047121637291 -4.081182026735828 -1.2327045361042064
-4.050946549200401 -3.768480359231912 -1.1449406563072004
-3.107110414970441 -3.3973190825115736 -1.1191524661772323
-2.202449892694667 -2.9383443837194148 -1.1130200043369995
-1.3704066735412552 -2.360017418839083 -1.0708760220852738
-0.6719033058813592 -1.6423145112073176 -0.9144225348057882
-0.19782309205497803 -0.8197971518123134 -0.5616070219549715
0.0 0.0 0.0
-0.0301935557030052 0.7299054988554988 0.7031551017412146
-0.21142267213306223 1.35405260587199 1.4818722005603449
-0.49219632773751276 1.8856542498654656 2.2989943653606923
-0.8446901821983215 2.340280745468017 3.1345415401638124
-1.2541013098999976 2.729999845659016 3.9770378792634236
-1.7095242914238618 3.0671432315230853 4.8186532883106485
-2.1970451071878183 3.3686224816511845 5.655818607379146
-2.695681781415318 3.6560787883594164 6.491322747901394
-3.174860651890111 3.955074719126011 7.334177989730674
-3.588490581178795 4.290737386425257 8.19755919977585
-3.868047390484701 4.6782030792043425 9.092148912185081
-3.9341557155285685 5.091147295313728 10.015614106783913
-3.7392923893799495 5.436862030133998 10.948147784360819
-3.315942253992576 5.589631892537193 11.85601299836205
-2.7665429661613543 5.479304078427963 12.700474707147634
-2.1851846559451755 5.135481762771256 13.456883004852465
-1.6109555843852545 4.6335141005673295 14.12565546090859
-1.045900326192271 4.039427602939908 14.723144975473634
-0.4807615052329623 3.3989854079974187 15.27070302497033
0.0947551544379467 2.7449515998054332 15.790707870063423
0.6899103529946314 2.104337848480777 16.3052957227303
1.3119211878084642 1.5027978325281712 16.834997802305416
1.9654498633904118 0.9653793735997229 17.39471383171921
2.6519423658905636 0.5149909770265017 17.990547874235645
3.3691590411135666 0.17026175163511528 18.619684705609224
4.109946061770973 -0.051543417799110605 19.276183480028873
4.857407084959939 -0.13297290902414444 19.957015520086298
5.574002048355831 -0.06389555088455591 20.671602595810256
6.191713347595716 0.13864170411626325 21.447941231348537
6.61698568888301 0.42134404598681413 22.335230953884444
6.794210570560786 0.6897054478526741 23.255308425877207
6.715759241353318 0.900751058601773 24.2758754372415
LINES 1 65
64 0 1 2 3 4 5 6 7 8 9 10 11 12 13 14 15 16 17 18 19 20 21 22 23 24 25 26 27 28 29 30 31 32 33 34 35 36 37 38 39 40 41 42 43 44 45 46 47 48 49 50 51 52 53 54 55 56 57 58 59 60 61 62 63
POINT_DATA 64
SCALARS MaximumInscribedSphereRadius float
LOOKUP_TABLE default
0.6200000047683716
0.7676460146903992
1.0083099603652954
1.4878599643707275
1.725600004196167
1.4620000123977661
1.2554999589920044
1.1639100313186646
1.1935800313949585
1.336709976196289
1.8388099670410156
2.0112199783325195
1.6851999759674072
1.7138700485229492
1.8483699560165405
1.8600000143051147
1.8245199918746948
1.667240023612976
1.4792399406433105
1.2672899961471558
1.5254199504852295
1.841040015220642
2.1401000022888184
2.4247701168060303
1.9687199592590332
1.441140055656433
1.5499600172042847
1.7253400087356567
1.496269941329956
1.389299988746643
1.8462300300598145
2.2140700817108154
2.4372000694274902
2.4800000190734863
2.4116098880767822
2.1091299057006836
2.02128005027771
2.392430067062378
2.6489500999450684
2.2464499473571777
1.8630900382995605
1.8600000143051147
2.0707600116729736
2.4577300548553467
2.5967600345611572
2.381730079650879
1.9855899810791016
1.6469199657440186
1.4273300170898438
1.2968000173568726
1.5353200435638428
1.8624299764633179
2.1810600757598877
2.496299982070923
2.735960006713867
2.8112800121307373
2.4308300018310547
2.247390031814575
2.3371100425720215
2.7271499633789062
2.9421799182891846
2.5851800441741943
2.2045600414276123
1.8600000143051147
