# vtk DataFile Version 2.0
Vessel Segment
ASCII
DATASET POLYDATA
POINTS 64 float
-0.35779456971159207 -11.034047732123495 -0.7081525738016456
0.10020035362471316 -10.731189900450234 -1.59837229970672
0.5183165633687855 -10.27900982669453 -2.3615180535436058
0.9219818865912562 -9.656529265473917 -3.0546891475646216
1.2686820056901225 -8.87909986904536 -3.605743095316114
1.5262862132284385 -7.9716981847226664 -3.9757782493346263
1.6685710450854734 -6.98280817395828 -4.145423928575532
1.6902312308955891 -5.9692367553904795 -4.135825172092927
1.6030135188861012 -4.967339348857832 -4.004587676713907
1.4150181352765034 -3.988334604871299 -3.817124900899698
1.1154290830225644 -3.0363640714639573 -3.6362088065358367
0.6666962488968757 -2.1348465420082707 -3.5203926292538106
0.008839594016347641 -1.365577468749136 -3.4998635738629567
-0.8779598727781251 -0.8804902839222043 -3.5154900184188644
-1.8806437858070226 -0.7748281846324053 -3.437707705410779
-2.8484740337417613 -0.9668266646994702 -3.2083110456180473
-3.7314732632037138 -1.3189331848895485 -2.8553907381315753
-4.537847331354358 -1.744677894709512 -2.4111185406238067
-5.283038934513177 -2.195321057077483 -1.8908313951652933
-5.972818356502669 -2.636060951437014 -1.2917161845848963
-6.58967677221625 -3.0223366796737676 -0.5862788530370484
-7.040799609457515 -3.2432984306238826 0.29097052856972017
-7.008854578896564 -3.015372099274844 1.2588721878261688
-6.487691248355326 -2.407109644090809 1.876650131912158
-5.800172726120175 -1.7148712880045869 2.1481551950434756
-5.047740193756252 -1.0363474346493682 2.156066375845711
-4.263499496398895 -0.44014698232730676 1.9197049061611884
-3.4705530063987466 -0.006130494845374399 1.462632826098085
-2.6825422190845263 0.20650960408090172 0.8620685147029756
-1.8757962924751754 0.20979088182467234 0.24844779387573188
-0.9720007620188912 0.07634065040468016 -0.18712768626135473
0.0 0.0 0.0
0.5646079181678542 0.18323038193431887 0.8177279361595916
0.7549666517996142 0.5090150520756005 1.7576995037370842
0.7133104910774685 0.8968267499417699 2.6933528225547856
0.4813426706850673 1.310353119513307 3.589519398025865
0.07838451985534561 1.7207719804474713 4.424580335570909
-0.46182925029605 2.1048052749003383 5.192330859669596
-1.0774831233149202 2.4573676624526866 5.91755242135465
-1.6851858526612238 2.7956267118867535 6.656193751756745
-2.18920631957675 3.141336635463231 7.4652041236299995
-2.507423439828689 3.4897468787405272 8.362146366997905
-2.6133859701118247 3.801235032728857 9.320890441067643
-2.5338147684544294 4.024302842530836 10.306598355388365
-2.3134902134819293 4.108773483594428 11.292498239583677
-1.9923533595018241 4.010541517282929 12.248806507405119
-1.6044333280541565 3.7052299361447214 13.133908178412629
-1.1734076108557019 3.218299313830515 13.9116774074771
-0.707791209685359 2.613571630949175 14.579634086848001
-0.207299674891352 1.9547748675756382 15.166745132796738
0.3261336948469502 1.2871421604457012 15.7136507675947
0.8816640831029164 0.6362011044000149 16.258635850801507
1.4419133838461002 0.013884784936615172 16.831518314602622
1.9897562271190232 -0.5720037974352072 17.452615048088315
2.5157595299770437 -1.1086662408202956 18.134080970567506
3.0202807888503593 -1.5720124529640829 18.88219739025812
3.511515150348237 -1.921793452688841 19.697537090487785
3.9969222766211328 -2.0935843339551816 20.57064064255698
4.466904285282345 -1.9947540617666901 21.461826768541226
4.874004690643011 -1.551690494972872 22.274581383232203
5.156550146155777 -0.8099934991417478 22.90334561689164
5.295172756313928 0.10303547790473248 23.324120416046362
5.309520460516152 1.052612890096371 23.567868970357992
5.2019322439381925 2.0875891101469026 23.674442438733994
LINES 1 65
64 0 1 2 3 4 5 6 7 8 9 10 11 12 13 14 15 16 17 18 19 20 21 22 23 24 25 26 27 28 29 30 31 32 33 34 35 36 37 38 39 40 41 42 43 44 45 46 47 48 49 50 51 52 53 54 55 56 57 58 59 60 61 62 63
POINT_DATA 64
SCALARS MaximumInscribedSphereRadius float
LOOKUP_TABLE default
0.9300000071525574
1.1339600086212158
1.2367000579833984
1.2038300037384033
0.9972019791603088
0.9300180077552795
0.944133996963501
0.9816660284996033
1.162750005722046
1.1151299476623535
0.9356859922409058
0.9300000071525574
0.9300000071525574
0.9300000071525574
0.9300000071525574
0.9300000071525574
0.9472079873085022
1.1256500482559204
1.2350000143051147
1.229099988937378
1.0650299787521362
1.0832799673080444
1.5842299461364746
1.8903499841690063
1.7461600303649902
1.600659966468811
1.5499999523162842
1.5499999523162842
1.5509999990463257
1.7454500198364258
1.3932000398635864
1.4249299764633179
1.8596899509429932
1.6752699613571167
1.0884499549865723
1.0839899778366089
1.3417999744415283
1.7427300214767456
1.7062699794769287
1.4870699644088745
1.2612199783325195
1.0334899425506592
1.1707799434661865
1.5060800313949585
1.5499999523162842
1.5499999523162842
1.6272799968719482
1.8340400457382202
2.0514800548553467
1.8776899576187134
1.3853700160980225
1.4584200382232666
1.80417001247406
2.096519947052002
1.952239990234375
1.8703999519348145
1.9139000177383423
2.088779926300049
1.9885400533676147
1.7447799444198608
1.6911900043487549
2.0445799827575684
2.303260087966919
2.4800000190734863
