# vtk DataFile Version 2.0
Vessel Segment
ASCII
DATASET POLYDATA
POINTS 64 float
-6.046265351007729 -13.810566802992346 0.3754680154590453
-5.006447785886346 -13.677056535561032 0.39238340857586385
-4.057889411875784 -13.47517035118711 0.2963012202969962
-3.0995061828350168 -13.180920145038753 0.10722308355748632
-2.2076959754493246 -12.784403445898679 -0.168993289962458
-1.407405883868373 -12.270356126657795 -0.5200208624531741
-0.7313988749952867 -11.632397405051279 -0.9252025052810395
-0.20124963125235934 -10.88035524871861 -1.351299440766934
0.18647319957197978 -10.037490842547511 -1.7609041115142505
0.4541725742115207 -9.129958172919068 -2.126347147897115
0.6286330301356735 -8.179935296866628 -2.4362746926843335
0.7304851061860226 -7.203978806245522 -2.693770959353096
0.7678397166434243 -6.214366486452974 -2.9141422454853982
0.7310659008110045 -5.222279526378771 -3.122652496462846
0.5895375886401941 -4.243143696068617 -3.3467006397519237
0.29870405990309556 -3.305217477209957 -3.599317973498247
-0.17823476780282754 -2.450259568285014 -3.862367873399361
-0.8437525331621749 -1.720388568215624 -4.089894915377121
-1.6596630996913568 -1.1358069713323573 -4.232301772030743
-2.5682976267140205 -0.686545818467589 -4.2580516385725815
-3.518208738605906 -0.3477459836174255 -4.151759199100203
-4.467502260184438 -0.09461494951309295 -3.900437417086405
-5.370878928362392 0.09465333183563722 -3.4806819657508683
-6.14350845708596 0.2393231163730465 -2.8442849557130354
-6.490184941331032 0.3520071160053452 -1.907327580842472
-5.924240369205856 0.40034198375930585 -1.083702020098527
-4.9863413603475655 0.39063566555257906 -0.7005918630284693
-3.988369057753292 0.350939150991976 -0.5248936694513255
-2.978767422795927 0.28629113555986785 -0.44860440146977815
-1.969265535039999 0.19798708963933778 -0.39872493900872197
-0.9658050940193301 0.09271592379843846 -0.2936700852184474
0.0 0.0 0.0
0.7690339374618956 0.011222406404969696 0.6513131201288936
1.17918147533474 0.19331548395331277 1.5585778697310295
1.3445423957642442 0.4955056579574974 2.512206517838284
1.390266409310988 0.868944562221435 3.4543638301602404
1.3747419423250968 1.286570475294253 4.3787676561406705
1.324892293385942 1.7270682512518447 5.291398133368087
1.2522185968561517 2.1690913506986296 6.201753119984037
1.1596744881123515 2.589466163375568 7.120515327668779
1.0449051040342319 2.9607462956667616 8.057637974937988
0.9046992709797296 3.2501075311354413 9.019753496407022
0.7395648745489993 3.417978634689095 10.006220440222489
0.5595390086360539 3.420488549866037 11.00409674137102
0.3867705149528334 3.2222075614653294 11.983153063359323
0.247075016875721 2.818583259036593 12.902557274956138
0.15503808428211813 2.244994036947519 13.733687356925804
0.10743905940526403 1.5558602563013897 14.476446309285858
0.09085539292459507 0.799466172012245 15.152346012368264
0.09109359482217232 0.011602756500594865 15.791662355383094
0.09709725064572405 -0.778176877731262 16.428540709968644
0.10360448733024967 -1.539693629942032 17.0988208802922
0.11225540305288602 -2.234223806367677 17.83805525614637
0.13214607767724673 -2.805715611929761 18.67536780474669
0.17822208341549053 -3.1783415291727475 19.616544286220098
0.26250502737485504 -3.2838905815845636 20.62060287921082
0.3812565695258476 -3.1203272586436896 21.613713509952493
0.5180065337565062 -2.751008474126153 22.548219067721128
0.6565594170864086 -2.2490449094772478 23.418713729960324
0.7845297946053243 -1.6736099076528081 24.24440385496158
0.8920008282964534 -1.080687147363482 25.060759248254907
0.967326556030601 -0.5539217760698266 25.925758336396807
0.9884972594654436 -0.29249765842561404 26.883185367944233
0.9197452927241948 -0.7796736886422975 27.790009335588035
LINES 1 65
64 0 1 2 3 4 5 6 7 8 9 10 11 12 13 14 15 16 17 18 19 20 21 22 23 24 25 26 27 28 29 30 31 32 33 34 35 36 37 38 39 40 41 42 43 44 45 46 47 48 49 50 51 52 53 54 55 56 57 58 59 60 61 62 63
POINT_DATA 64
SCALARS MaximumInscribedSphereRadius float
LOOKUP_TABLE default
1.5499999523162842
1.4030200242996216
1.2893799543380737
1.2539399862289429
1.2400000095367432
1.2400000095367432
1.2400000095367432
1.260849952697754
1.3917499780654907
1.5486199855804443
1.5499999523162842
1.5499999523162842
1.5499999523162842
1.5499999523162842
1.5495699644088745
1.48048996925354
1.4008899927139282
1.388800024986267
1.3591099977493286
1.2795100212097168
1.2400000095367432
1.2400000095367432
1.373769998550415
1.6992499828338623
2.4312899112701416
2.439579963684082
2.1292500495910645
1.967460036277771
2.308759927749634
2.478600025177002
2.483139991760254
3.0612800121307373
2.963639974594116
2.140160083770752
1.9518100023269653
1.8619999885559082
1.8610899448394775
2.026240110397339
2.3379299640655518
2.305259943008423
2.0023000240325928
1.9700299501419067
2.144890069961548
1.8545000553131104
1.69746994972229
1.9902199506759644
2.0867199897766113
1.9276200532913208
1.8751300573349
1.8455400466918945
1.7249399423599243
1.5616099834442139
2.1816799640655518
2.6576499938964844
2.592410087585449
2.2311599254608154
1.6897499561309814
1.6800899505615234
1.8634999990463257
2.146660089492798
2.4659299850463867
2.112529993057251
2.0763700008392334
2.4800000190734863
