# vtk DataFile Version 2.0
Vessel Segment
ASCII
DATASET POLYDATA
POINTS 64 float
-0.6142906469825798 -16.668389570996414 -0.36451886619763585
-0.24022619413295246 -16.18702819954833 -1.2050996671331113
0.09054028559031453 -15.566240908837056 -1.8895916295029307
0.4007540455519974 -14.778731251511756 -2.468759185738203
0.6552574212203831 -13.8886939388621 -2.8763324341135372
0.8533771914406459 -12.932355884186933 -3.152887155887576
0.9771333529958943 -11.943312972808739 -3.341387568081117
0.9858493015569884 -10.94248468720861 -3.5065970698744255
0.7990878327273325 -9.969446670415014 -3.7223753290709753
0.3485032448156492 -9.117224129943132 -4.035431795455708
-0.3149899877275093 -8.448705309398747 -4.411746803177528
-1.096676842314976 -7.9255180111129 -4.791516079332488
-1.946503853034155 -7.492627811495505 -5.1374807829042535
-2.843421842664411 -7.115624427893134 -5.425066181070031
-3.7764943519725622 -6.775717624508415 -5.6324464542854935
-4.735716561045689 -6.461941629523668 -5.736415563570813
-5.705891539905982 -6.1670398703369695 -5.709186028746669
-6.658359615803302 -5.883004904156206 -5.514223592947102
-7.54682065484513 -5.596603453265625 -5.090243077142331
-7.993806094521581 -5.291032936706714 -4.270770507371113
-7.397588027823975 -5.105072582995401 -3.5162608861837823
-6.4076468146838454 -5.048387935445994 -3.235318927822431
-5.4081763531259055 -4.987593732655947 -3.0931553853145024
-4.402865792545189 -4.885223638990561 -2.9979411822950293
-3.410571162972643 -4.703902612044656 -2.8896928022641943
-2.4570615736762083 -4.4014691218725295 -2.7214311688887807
-1.5974241225474755 -3.93556379683685 -2.452864489791714
-0.909620441066288 -3.2962774117831346 -2.0709946508087334
-0.43729498482902734 -2.5294584662939386 -1.6046854328610145
-0.15993348623527903 -1.6981418737631402 -1.0938526689484935
-0.028921142714701368 -0.8461459626117633 -0.558912566242295
0.0 0.0 0.0
-0.04066827611411937 0.8211080716304535 0.5945396281959388
-0.12556970550307522 1.5978221713522933 1.2417349174222232
-0.23031991028625626 2.3072216366713616 1.9593221422835407
-0.32630344146874407 2.9242175164726483 2.7588169888440013
-0.38134054903859366 3.4299575797756194 3.6364247826860066
-0.3703603408056276 3.823352718938741 4.571425171950299
-0.28603659240277834 4.120242835741847 5.5378479480374265
-0.13592925815911872 4.341409972490967 6.516541023097524
0.06500178797343288 4.501079609913466 7.498095070188479
0.29795242696392077 4.602565400791976 8.480344082067703
0.5428767293138678 4.639270750852455 9.464174367384231
0.7795440490995728 4.599105003823295 10.449918144222009
0.9891851759771648 4.4694296567410445 11.434042492936197
1.157147413379064 4.242427207194684 12.408419140463085
1.2779133754444945 3.918077355043543 13.362068903099505
1.3566075645242248 3.5050743818662995 14.285378982757033
1.4056361444605359 3.019296405850313 15.17472741601748
1.4370656093124974 2.4816126806715175 16.034519291827195
1.457781827765281 1.9156280611995 16.87638938443972
1.4683721407391137 1.3468021437507882 17.716443419513727
1.4648409980055654 0.8031250229625957 18.57309022942801
1.4399132059319149 0.3168462001941586 19.463134615081646
1.3862879681830627 -0.07276498026411772 20.398246741682577
1.299929525659816 -0.318703512227102 21.378527143177717
1.185454004933235 -0.37241081854402946 22.384795922697638
1.0619273817926986 -0.204847947149354 23.377387165901197
0.9617161213989682 0.17178258514154274 24.3136007653486
0.9261425390372124 0.7109870895287324 25.17258906162535
0.9974254683940358 1.3548064503591732 25.950477878744348
1.2539539844145409 2.053549732010902 26.652877115459276
1.7129037239671303 2.700798501875427 27.23473977744124
2.493735058975532 3.2155629893493782 27.684008804446794
LINES 1 65
64 0 1 2 3 4 5 6 7 8 9 10 11 12 13 14 15 16 17 18 19 20 21 22 23 24 25 26 27 28 29 30 31 32 33 34 35 36 37 38 39 40 41 42 43 44 45 46 47 48 49 50 51 52 53 54 55 56 57 58 59 60 61 62 63
POINT_DATA 64
SCALARS MaximumInscribedSphereRadius float
LOOKUP_TABLE default
1.2400000095367432
1.0781500339508057
0.9386320114135742
0.938696026802063
1.0446499586105347
1.2010200023651123
1.2400000095367432
1.2400000095367432
1.1546900272369385
0.9616050124168396
1.1572599411010742
1.2400000095367432
1.1591399908065796
0.893451988697052
0.7072569727897644
0.8129690289497375
0.8764359951019287
0.7291060090065002
0.9615650177001953
1.6655999422073364
1.7728500366210938
1.8131799697875977
2.0776801109313965
1.7999000549316406
1.6032099723815918
1.7764400243759155
1.870110034942627
1.945889949798584
2.143209934234619
2.2278800010681152
2.2019500732421875
2.1835899353027344
2.1544699668884277
1.9857200384140015
1.9237500429153442
2.0828299522399902
2.035949945449829
1.8416800498962402
1.6492700576782227
1.6425800323486328
1.832170009613037
2.0598199367523193
2.225069999694824
2.211980104446411
2.186310052871704
2.1970200538635254
2.34840989112854
2.5365400314331055
2.696190118789673
2.5646300315856934
2.296260118484497
2.330349922180176
2.341099977493286
2.056030035018921
1.999459981918335
2.2220699787139893
1.7050399780273438
1.3855400085449219
1.8301600217819214
2.202169895172119
2.2612199783325195
1.8275699615478516
1.8252999782562256
2.1700000762939453
