# vtk DataFile Version 2.0
Vessel Segment
ASCII
DATASET POLYDATA
POINTS 64 float
-3.2917447855699824 -12.86228177873187 -0.7348078925099621
-2.489514214693588 -12.896078037273078 -1.4024756549272288
-1.7150679738475012 -12.708158368195337 -1.9775683289518673
-0.9699808491401646 -12.354699081395912 -2.5691656820788262
-0.3522913067752778 -11.826366894672487 -3.175060760681898
0.06046784379409033 -11.113341364567047 -3.76380165297128
0.2665616039502382 -10.24359630927547 -4.240630369273831
0.3737134557124596 -9.274531417191044 -4.517166397905164
0.4834091704022732 -8.268824263814965 -4.5829592757891255
0.6026226811246309 -7.265296563055949 -4.495821895319519
0.656171759760085 -6.267382818803124 -4.322353195358983
0.4986295177076748 -5.287086909432958 -4.122970893948208
0.009063677577027638 -4.415770467770083 -3.966766887228246
-0.7021584084548127 -3.699652459364884 -3.8693905718469566
-1.491599006822676 -3.068525342781595 -3.7814569404763083
-2.3096023302290614 -2.4856626965279505 -3.639686547671491
-3.167241472753557 -2.0058886083498644 -3.391099502233324
-4.078449120910525 -1.7412353585236655 -3.036272346729222
-5.004838591560678 -1.6901790032575548 -2.6271798767670296
-5.904784073447462 -1.7194466284665935 -2.1688813353485212
-6.722107555771525 -1.640637410842083 -1.557123548840896
-6.5398402868532735 -1.0482011917115515 -0.8410499658625907
-5.639253414646119 -0.5813413320150127 -0.728563854305753
-4.687107061537684 -0.3040719364400161 -0.9266792072343208
-3.77755424815328 -0.21005297805110182 -1.3615374499377164
-2.95226468101456 -0.29572006388599337 -1.9440080873444594
-2.1709835089325624 -0.5459636394784301 -2.5392126810363185
-1.3268070573644348 -0.9486802689679166 -2.922033510266931
-0.47435130169870504 -1.2769451788500057 -2.5576747363611636
-0.03624042579519544 -1.1257139654395705 -1.6594646305092227
0.08355330228078728 -0.6459977284017467 -0.7764563494744968
0.0 0.0 0.0
-0.24556024801308374 0.7051392450854932 0.6860708098590821
-0.6399231677968216 1.3894108571087562 1.3221597140078523
-1.162538666163117 1.9940317451213578 1.9464783253391444
-1.7591849588698611 2.503293313556639 2.589634621088087
-2.353914793582772 2.944036433068214 3.2833211947959624
-2.8639473767517782 3.3437063847938058 4.06321818785012
-3.2017722440002716 3.6945335770702576 4.951823302547435
-3.308509529889851 3.9494230858941846 5.926332633608409
-3.201086435498505 4.06748860363667 6.927104147915707
-2.9412951399682568 4.051850923481716 7.907134413335256
-2.5743979654248355 3.9309686830798802 8.844863029098828
-2.1105400364790907 3.7319062027005225 9.724515729732904
-1.5569381068476091 3.4503868492829177 10.526206151803587
-0.9763485535295706 3.042589814521056 11.250704969313507
-0.46655892059984155 2.4920045722236095 11.93271303729668
-0.05570013393171305 1.8591379427547823 12.610778063556301
0.30670932761642994 1.2192050104230663 13.309785310654911
0.6785167810507041 0.6235065017572224 14.041895215601832
1.0820901239002125 0.0993914575410613 14.81102066855269
1.4981433922577025 -0.3477398907276888 15.620969244427137
1.8810809840170208 -0.7267919093395945 16.480408178280445
2.188345669650689 -1.0370977888695296 17.395811075712594
2.406942767250775 -1.246714186336228 18.363618453287298
2.5544296888728533 -1.2907495749446134 19.365522494470994
2.661751345527769 -1.0886963416479178 20.35213731699444
2.7563599212379555 -0.5974174123597971 21.232130643261414
2.854030459993538 0.14000379576099167 21.919433905204247
2.9593698431853324 1.0261825412407197 22.399999741656856
3.0721475421360367 1.9759450392430356 22.739192825250612
3.1905360205859807 2.9316193128158696 23.060725388101112
3.304324822136247 3.789772221097812 23.538125945181285
3.3862562247570964 4.320351150188869 24.42520690905915
LINES 1 65
64 0 1 2 3 4 5 6 7 8 9 10 11 12 13 14 15 16 17 18 19 20 21 22 23 24 25 26 27 28 29 30 31 32 33 34 35 36 37 38 39 40 41 42 43 44 45 46 47 48 49 50 51 52 53 54 55 56 57 58 59 60 61 62 63
POINT_DATA 64
SCALARS MaximumInscribedSphereRadius float
LOOKUP_TABLE default
1.1160000562667847
1.1160000562667847
1.157420039176941
1.2250200510025024
1.2400000095367432
1.1978800296783447
1.1502100229263306
1.237030029296875
1.4253699779510498
1.6680400371551514
1.7947299480438232
1.741320013999939
1.5604100227355957
1.5499999523162842
1.4059300422668457
1.3169599771499634
1.4782400131225586
1.3942999839782715
1.1858899593353271
1.0148500204086304
1.1630699634552002
1.5750999450683594
2.034830093383789
2.1847100257873535
2.232840061187744
2.557539939880371
2.5619499683380127
1.8974100351333618
2.0711700916290283
1.9253000020980835
1.8715800046920776
1.9620599746704102
2.299099922180176
2.4784300327301025
2.463819980621338
2.304110050201416
2.1087899208068848
1.909060001373291
1.7034399509429932
1.6657999753952026
2.0734798908233643
2.1700000762939453
2.175189971923828
2.1771600246429443
2.0152699947357178
1.876729965209961
1.8230899572372437
1.6600500345230103
1.5700500011444092
1.5522799491882324
1.5499999523162842
1.6284699440002441
1.8075599670410156
1.8600000143051147
1.803529977798462
1.5044100284576416
1.4571800231933594
1.5845400094985962
1.7814300060272217
1.8600000143051147
1.9201099872589111
2.2540500164031982
2.4862399101257324
2.4986000061035156
