# vtk DataFile Version 2.0
Vessel Segment
ASCII
DATASET POLYDATA
POINTS 64 float
-10.057997896041499 -12.865216655829817 -2.9505134516379616
-9.105237084825259 -13.260141916924109 -3.0704335080629037
-8.15451947479373 -13.493000863135194 -3.141191559974581
-7.137466314711519 -13.620818956156027 -3.197625107420604
-6.128229486690663 -13.647128025811202 -3.2551830604544896
-5.116535508149623 -13.61378788322353 -3.334895373992885
-4.110615354835988 -13.535930030718594 -3.4403845557548847
-3.1106090089705494 -13.410949829008617 -3.5577593228932263
-2.1196387912296886 -13.215579897259726 -3.6529843987507604
-1.1539297625477467 -12.905327625377817 -3.661670105794571
-0.27614298186048775 -12.433576340890426 -3.479470638501558
0.43098568274335625 -11.838960249048325 -3.0610743224507013
0.9979031511762165 -11.221291549705162 -2.4897469654088344
1.5234913696354642 -10.625884065680792 -1.858358275374953
2.0873231352668387 -10.05220719942874 -1.2399647488365075
2.7343937211720637 -9.471662502448925 -0.7176934100283445
3.462073647296348 -8.826150287161342 -0.43252287292504227
4.11459600246244 -8.06237540474983 -0.554993257928986
4.457242334307426 -7.208491133488913 -0.9810656248099793
4.462296896937713 -6.292750771898488 -1.4152064582822481
4.204553992659108 -5.345631786807103 -1.6674237721502085
3.7759956952141787 -4.426828910944741 -1.6879832231460252
3.2436931109708693 -3.574223769253547 -1.5502356514730329
2.623322228842645 -2.791372196329302 -1.3725711994119711
1.9063850027673126 -2.08023741622123 -1.2772821668435823
1.1130564916126824 -1.4531696968334633 -1.3490937507735974
0.2918583023600666 -0.8953673624382592 -1.573660929275411
-0.5061730705457044 -0.38058528586477114 -1.8762735017810845
-1.3358456457532812 0.31098369774742335 -2.0592841222655083
-1.3159666171393796 0.7089264572383324 -1.3902226181296906
-0.6731329280819242 0.47286590926926425 -0.5863401767167131
0.0 0.0 0.0
0.6760238759565925 -0.6089368084722298 0.44828471296595157
1.3357505963265581 -1.293051016444548 0.8035944330928101
1.9833143202174162 -1.984572778875277 1.168189382065918
2.611125916555281 -2.5640494106358123 1.7129904608499165
3.1417937532280504 -2.8761751817925303 2.5158724701911237
3.5244725799848844 -2.9073949161196477 3.454988741505988
3.789149107711808 -2.743680291701549 4.420419113219933
3.9692228256861246 -2.4362128666004876 5.370147033417436
4.083647741187332 -2.0043837206753694 6.280980600243068
4.145396335445881 -1.4594659579857951 7.134390505704425
4.165632561408184 -0.8255216310245154 7.926149939621438
4.155278351797481 -0.14507983875952343 8.678738876591543
4.1188043566595995 0.5385616913895065 9.427552203046721
4.048997386222528 1.1930392768911495 10.199649708659495
3.9250537508603816 1.795125218946594 11.006762136024363
3.71571558686302 2.324066898030455 11.846681067817359
3.392633835247467 2.758609918036184 12.704444880987705
2.9490900470667034 3.079731524050428 13.558223617192466
2.4056158552499136 3.27499527945179 14.392282414523052
1.7983147517087095 3.3330237660003714 15.2027605559957
1.1683361067799827 3.2387938344664007 15.992186090562031
0.5548754072239828 2.986686618032641 16.759655300658135
-0.021098521936651467 2.6035648401247444 17.50174883882033
-0.5699485817837683 2.14408092396162 18.220737058397955
-1.1218600792878695 1.6607513989070288 18.92165087187598
-1.704885257105183 1.1869610725478401 19.603571375218433
-2.3293736729577867 0.7340727473581186 20.262407878022984
-2.9833901678524133 0.29954071674998767 20.905611329951732
-3.637471789013358 -0.11816849650448696 21.55650840782522
-4.231921885902873 -0.4972979739120675 22.29552783595029
-4.65097140647743 -0.7698597289526388 23.147886786334844
-4.666508852098708 -0.7867117515920069 24.183486910788943
LINES 1 65
64 0 1 2 3 4 5 6 7 8 9 10 11 12 13 14 15 16 17 18 19 20 21 22 23 24 25 26 27 28 29 30 31 32 33 34 35 36 37 38 39 40 41 42 43 44 45 46 47 48 49 50 51 52 53 54 55 56 57 58 59 60 61 62 63
POINT_DATA 64
SCALARS MaximumInscribedSphereRadius float
LOOKUP_TABLE default
1.5499999523162842
1.233049988746643
0.995855987071991
1.110990047454834
1.2214800119400024
1.2400000095367432
1.1868200302124023
1.0497699975967407
1.009369969367981
1.3374899625778198
1.506410002708435
1.4057799577713013
1.282729983329773
1.1760799884796143
1.2918800115585327
1.5183199644088745
1.4656399488449097
1.4205199480056763
1.4947600364685059
1.4163000583648682
1.2641700506210327
1.1769100427627563
1.1568800210952759
1.2636799812316895
1.4075700044631958
1.6453399658203125
1.802649974822998
1.6744400262832642
1.5602600574493408
1.3912099599838257
1.1854599714279175
1.017799973487854
0.9300000071525574
0.938975989818573
1.029229998588562
1.264989972114563
1.6128699779510498
1.8309999704360962
1.8600000143051147
1.8600000143051147
1.8462599515914917
1.6783900260925293
1.3910900354385376
1.3497799634933472
1.5021400451660156
1.5499999523162842
1.5499999523162842
1.5499999523162842
1.5499999523162842
1.5499999523162842
1.5499999523162842
1.5499999523162842
1.4773099422454834
1.2781800031661987
1.2223600149154663
1.4252899885177612
1.5499999523162842
1.55076003074646
1.558109998703003
1.5710099935531616
1.4796199798583984
1.2948700189590454
1.4876699447631836
1.809999942779541
