# vtk DataFile Version 2.0
Vessel Segment
ASCII
DATASET POLYDATA
POINTS 64 float
-4.283719269249756 -23.28815831820394 -1.9890539049349083
-3.862404820975798 -22.721910948941503 -2.7375500028709663
-3.5153246700032366 -22.193582506347102 -3.5043611992466146
-3.18835430959428 -21.66249066476881 -4.315716160154942
-2.8509096087136396 -21.138772657942848 -5.114619708245871
-2.3661142406200026 -20.559886903288294 -5.7887992363452465
-1.7131694666775528 -19.843846395077446 -6.078164521850862
-1.171860858503177 -18.98664121120921 -6.138987762710452
-0.8091928202075617 -18.05429431962831 -6.307069787862491
-0.5664244411479737 -17.11175622534924 -6.593346771233104
-0.421519955035955 -16.173531980424766 -6.95135223343234
-0.38623002897776365 -15.231417842363484 -7.326142444846685
-0.5037007866016339 -14.277725506559126 -7.651696245954221
-0.8233728927053544 -13.334637763615891 -7.843940484281307
-1.3347626055770339 -12.458957009575984 -7.842318401404452
-1.9572354740997326 -11.680495130934935 -7.653717984841855
-2.609142399383958 -10.983374524846834 -7.309791819403034
-3.21914435370148 -10.337929428210499 -6.8188064814707605
-3.6441216023633376 -9.712005119233352 -6.14287451446167
-3.504661018420668 -9.159294993191832 -5.319652611258899
-2.7954231148053252 -8.799827504782874 -4.674653249753682
-2.0002017001183297 -8.45523675364024 -4.153414508103498
-1.271694677610778 -7.994518416996723 -3.6167848498951924
-0.7312431117128683 -7.367895645425009 -3.0316850548032486
-0.43467860773462996 -6.601491356180142 -2.437334345288135
-0.32580275171263423 -5.750635849445519 -1.8953048682601557
-0.3072020973630864 -4.844883261646496 -1.438633738034877
-0.3058634000730119 -3.897811595662367 -1.0747842527143812
-0.27862876536725195 -2.9244046829589574 -0.7899867361363048
-0.21036568472289643 -1.9411809960462623 -0.5490936168003564
-0.10969895675673741 -0.9621482505330399 -0.3027054040158968
0.0 0.0 0.0
0.09068816992364191 0.9293916734413029 0.3967371549869322
0.14060216862467073 1.8070385542956573 0.9031154545004182
0.13916987328882063 2.6147619407428473 1.5170061236700432
0.08644207532103867 3.3352996281874727 2.229167479712861
-0.010858775511454909 3.9485781360814003 3.0314536736239437
-0.1413457162598461 4.429774859426634 3.9149754331372844
-0.28878187500351227 4.754419393169947 4.864664468846556
-0.4346425172058121 4.912463252495291 5.85606399799119
-0.5622266470233981 4.916078239485337 6.862499848841278
-0.6612413818687305 4.79432684479216 7.86486171487308
-0.7280086699576535 4.578652158642516 8.8540040183432
-0.7638553744308693 4.29494849863203 9.8274423992379
-0.772514492328228 3.961176141507131 10.78553812611302
-0.758747751370166 3.5898645317605307 11.729628293683225
-0.7260508667013931 3.191988665414909 12.662434924667505
-0.6748374670068209 2.7820407342680182 13.589106376963276
-0.6002316020943173 2.3793817178489642 14.517387408968617
-0.49334893587963047 2.0079347780532575 15.455443605147783
-0.34595205032125886 1.692683970446548 16.408499572616215
-0.15632333051025543 1.461006345877127 17.377885681460995
0.06796609959514772 1.3480173903247892 18.360836544853363
0.3114632500247085 1.404541500410945 19.34404159637561
0.5553708963287488 1.6897247557594763 20.286221431646837
0.787370856333011 2.228513247964755 21.113193364899942
1.013402353355953 2.975464210793593 21.76114612295135
1.2564915949451496 3.8472053222041414 22.219786568234145
1.5477480938255324 4.771607993566771 22.5186251490005
1.9250510757707935 5.694565429346145 22.709408988811628
2.4291311270942524 6.557522002323073 22.871213361935617
3.0746667627340525 7.289066656059105 23.174790041466448
3.708248909511546 7.8226627429619295 23.7238388368504
4.208147808358105 8.243570079286416 24.518362682503042
LINES 1 65
64 0 1 2 3 4 5 6 7 8 9 10 11 12 13 14 15 16 17 18 19 20 21 22 23 24 25 26 27 28 29 30 31 32 33 34 35 36 37 38 39 40 41 42 43 44 45 46 47 48 49 50 51 52 53 54 55 56 57 58 59 60 61 62 63
POINT_DATA 64
SCALARS MaximumInscribedSphereRadius float
LOOKUP_TABLE default
0.9300000071525574
1.0354700088500977
1.1450599431991577
1.160599946975708
0.8779619932174683
1.0000100135803223
1.6623899936676025
1.6433700323104858
1.653309941291809
1.7995599508285522
1.720710039138794
1.4893800020217896
1.3795000314712524
1.4489599466323853
1.495169997215271
1.1724400520324707
0.8193560242652893
0.8652870059013367
1.1710599660873413
1.5729199647903442
1.689079999923706
1.2060500383377075
1.087380051612854
1.416599988937378
1.6488399505615234
1.789139986038208
1.8128999471664429
1.7017899751663208
1.5729299783706665
1.5499999523162842
1.5499999523162842
1.6314799785614014
1.763759970664978
1.8349699974060059
1.7522000074386597
1.6971499919891357
1.7489099502563477
1.8380500078201294
1.9527900218963623
2.0894200801849365
2.224720001220703
2.3581900596618652
2.422179937362671
2.3381800651550293
2.2060999870300293
2.3690099716186523
2.63388991355896
2.729099988937378
2.594209909439087
2.4305100440979004
2.1331100463867188
1.8622000217437744
1.7021000385284424
1.651919960975647
1.8820300102233887
2.2685399055480957
2.1947898864746094
1.7668399810791016
1.8829200267791748
2.443540096282959
2.573509931564331
2.2641100883483887
2.1840999126434326
2.1700000762939453
