# vtk DataFile Version 2.0
Vessel Segment
ASCII
DATASET POLYDATA
POINTS 64 float
-1.0285782866452284 -12.455772871711018 -1.0331747856646363
-0.6615770676545863 -12.11728135495138 -1.9535148789606533
-0.24736025105710688 -11.631826516839642 -2.689786245239437
0.1581984168953738 -11.014521483425673 -3.3974260243313052
0.46651904251798754 -10.272699880855226 -4.014799090011232
0.57420957573096 -9.384106662407875 -4.487941384430905
0.4000120593228119 -8.403514595517114 -4.656656068261409
0.1045047937815262 -7.448876511088174 -4.484890405810515
-0.052224233908007595 -6.499746168892297 -4.165190047119432
0.030496842732037944 -5.523623380707715 -3.9047998521839586
0.24346380963676584 -4.538136101934991 -3.796841848214884
0.36207190498515573 -3.5327826500532864 -3.8462398268681963
-0.004794546942165847 -2.607253475104159 -3.9767835094732766
-0.8501943060727806 -2.04618485985516 -3.9770241782550255
-1.801129425616269 -1.7247238793477702 -3.836562493139558
-2.7742084559325977 -1.5092848892193176 -3.6466212541703276
-3.7700556801255476 -1.3837003983980638 -3.5007206203624457
-4.783603302319766 -1.3756765415943282 -3.465875906390704
-5.788582688479585 -1.4934319350547716 -3.534923199963971
-6.778748138249067 -1.6948165438873317 -3.626690077698493
-7.781170815208577 -1.8152692242959738 -3.464421290310191
-7.860574844452569 -1.4165559427813625 -2.7018228029933593
-7.106186951896644 -0.9648656547571284 -2.156382152132469
-6.168137595871242 -0.6714507102414021 -1.9081851566045087
-5.160574590856401 -0.5819551936077886 -1.9368331465741877
-4.168364970601682 -0.676500641758512 -2.126016784831347
-3.1908608629422255 -0.8712576443756889 -2.315263390538595
-2.1999924455639004 -1.079142215647124 -2.371622853013424
-1.2156405503187897 -1.2136257899484917 -2.172882153090102
-0.39993112659312163 -1.121774057332934 -1.586463471952513
-0.03880758962968986 -0.6697771838050004 -0.7596864747228064
0.0 0.0 0.0
-0.0467477965566094 0.7558295099569963 0.6751694541476563
-0.08842284574373473 1.5334583425104467 1.325580389199124
-0.10876070713178237 2.2853506432379893 2.006419319966725
-0.12706111045997348 2.973920056438268 2.751052917945926
-0.1685566534413019 3.5818430168781075 3.5620797128561477
-0.2414077454240265 4.113271373277605 4.4231558560395685
-0.3341411309764921 4.574731225393429 5.321886870826669
-0.4302320116006403 4.963168101248718 6.2541877343816115
-0.520923910561604 5.27003521721744 7.216863540482101
-0.6047474110241766 5.487949213890014 8.204090872572557
-0.6786256793893399 5.610249355432314 9.208435474248967
-0.7279607020377247 5.625916027683533 10.221476011161846
-0.7255472900212324 5.514554385714777 11.229551050602543
-0.6424654317108109 5.2536120212118425 12.20594945283658
-0.46894339898538184 4.840782516752533 13.115725515211636
-0.22340393243329537 4.304730358856577 13.941074090030627
0.06260496059924933 3.686055740356252 14.692480439091092
0.3628063441342083 3.0184713343477845 15.395027714853526
0.6628219635472465 2.32438200574842 16.071524862371277
0.9600067977928719 1.6199564813134013 16.738502504710294
1.2594664595159102 0.9207829163797491 17.41002534251332
1.5664686855194756 0.24767045083842829 18.10427016263879
1.8816567440526686 -0.3693630120357605 18.845269961308425
2.1976830506085916 -0.8852771703608445 19.65928417110052
2.4938313488394175 -1.2339021868669557 20.56404433237623
2.73221309434823 -1.3353183454119897 21.54352836688324
2.874574135370022 -1.1390769830259095 22.52704120827205
2.9197439700785237 -0.67263044767409 23.425576153192118
2.909602917129963 -0.005168409036155889 24.187967713891272
2.9219379370978507 0.8170601688719362 24.791969058651677
3.030468796869417 1.6980249234782019 25.204000028625014
3.4496506985613733 2.644056152431334 25.34540109034995
LINES 1 65
64 0 1 2 3 4 5 6 7 8 9 10 11 12 13 14 15 16 17 18 19 20 21 22 23 24 25 26 27 28 29 30 31 32 33 34 35 36 37 38 39 40 41 42 43 44 45 46 47 48 49 50 51 52 53 54 55 56 57 58 59 60 61 62 63
POINT_DATA 64
SCALARS MaximumInscribedSphereRadius float
LOOKUP_TABLE default
0.6944000124931335
0.8512449860572815
0.9300000071525574
0.9300000071525574
1.0989999771118164
1.2677700519561768
1.285889983177185
1.4665000438690186
1.4098299741744995
1.3145500421524048
1.4896600246429443
1.3499000072479248
1.0840500593185425
1.1594200134277344
1.5008900165557861
1.550570011138916
1.5821800231933594
1.6409399509429932
1.605139970779419
1.5753799676895142
1.623579978942871
1.5690799951553345
1.5499999523162842
1.5499999523162842
1.5499999523162842
1.638759970664978
1.8264700174331665
2.0327301025390625
1.8476899862289429
1.2767599821090698
1.2676700353622437
1.4579600095748901
1.5486700534820557
1.5499999523162842
1.5499999523162842
1.6257400512695312
1.8187899589538574
1.8600000143051147
1.8164199590682983
1.644819974899292
1.9795500040054321
2.472409963607788
1.899150013923645
1.7685099840164185
2.1777501106262207
1.9999200105667114
1.7603399753570557
1.5918400287628174
1.8401299715042114
2.0821499824523926
1.7233699560165405
1.6754800081253052
1.8688499927520752
1.869979977607727
1.9367300271987915
2.120879888534546
2.181999921798706
2.133539915084839
1.9262499809265137
2.0000998973846436
2.136929988861084
1.9544999599456787
1.871649980545044
1.8847999572753906
