# vtk DataFile Version 2.0
Vessel Segment
ASCII
DATASET POLYDATA
POINTS 64 float
6.0516236702172295 -8.663654857392721 -5.713111613374062
5.582386371072029 -7.87598853381634 -6.212611655482448
4.940366318422267 -7.148986697763694 -6.350027943873645
4.272665808991443 -6.377984850100979 -6.337662368331293
3.654907259236369 -5.579934118533162 -6.236254975604978
3.045168091424654 -4.780373172197407 -6.100899997917893
2.269499550592053 -4.149124642179857 -5.942421481851123
1.2955220879259293 -3.9920517215951645 -5.730711485411698
0.3416671692259149 -4.192834890792887 -5.453505641680576
-0.5471061729118532 -4.549320646667507 -5.118927602455559
-1.3784948200426557 -4.993940439468999 -4.744450781157813
-2.171317576422405 -5.493895443854616 -4.356053433466088
-2.961261242652632 -6.00572234411729 -3.9773263814866895
-3.781473219667425 -6.479860011470376 -3.6144776964896863
-4.641065915595697 -6.881500887406965 -3.255627310826132
-5.5348628868934675 -7.184192722863646 -2.881520054801037
-6.4412746886741425 -7.338260192688379 -2.4602339949323504
-7.268680790252709 -7.187094020713204 -1.9053745382703273
-7.360746173677555 -6.455431795651385 -1.25966578719608
-6.768240983562119 -5.690171732928093 -0.9281825611846636
-6.03441487312926 -5.002643838854729 -0.8097483533199912
-5.250837304747763 -4.364875286531014 -0.8921159658026839
-4.459729558657817 -3.8032174613764704 -1.1859170147807616
-3.6612881917651277 -3.3730952548143556 -1.6395222896222317
-2.8188426052864144 -3.1022710476806847 -2.134797043885864
-1.9036265918506994 -2.9617442856305645 -2.5484706161489847
-0.9191054180806518 -2.866308274694188 -2.7676300352617424
0.058185219852832586 -2.6469202378615138 -2.6387242747281685
0.6497717098210025 -2.097956175418512 -2.0509349638426393
0.6482351869846654 -1.387190108318734 -1.3266680930831092
0.3731435077189992 -0.6857090701914392 -0.6479553200712861
0.0 0.0 0.0
-0.4289185882845872 0.6850417624907184 0.6132079831279559
-0.9467133928237392 1.370699207189533 1.1520050558600075
-1.5993269764431555 2.0102782991753294 1.591623016725254
-2.347039823948173 2.548419424631384 2.016568505315246
-3.068901828429848 2.979026189682791 2.5827399987652657
-3.6235739442088852 3.3106964029954304 3.3627027472923
-3.947775377288931 3.567162566946102 4.288149202766626
-4.060210491275223 3.7864237282895035 5.271699576309471
-3.9807631777537775 3.998473013015887 6.260120498337162
-3.7043588065092723 4.2193384984150875 7.210191344735123
-3.229541935288137 4.424771318656221 8.08199775418497
-2.6244600172872468 4.495144358614112 8.892401550879528
-2.0307656367923816 4.313000357523692 9.693210463156722
-1.5116792331641016 3.943496384565954 10.482511256396824
-1.0059905384862222 3.5071107759079947 11.246199721530234
-0.41934188960088176 3.086886947414705 11.958837217462827
0.3027548782449766 2.732866823816283 12.576352105971683
1.1216112654749795 2.4357541023531164 13.096365883856457
1.9522627702730349 2.137918843900629 13.597048824642378
2.71924501325621 1.8055448865159698 14.171465223482903
3.393160656926305 1.4787751947634675 14.855435033007476
3.9903277059116373 1.2375511423179535 15.638794723595868
4.528804999996467 1.1823622482147342 16.495946299983732
4.972949574013732 1.4676931783787557 17.35868622996325
5.1882198166017375 2.1779211614994676 18.041386425161217
5.167699609663774 3.0890663633902653 18.485399857663168
5.049261966533983 4.037880747673534 18.824376765933913
4.924923651866083 4.994404919432143 19.138709269947174
4.845101554591207 5.949574022474551 19.470320924146368
4.83667896829997 6.8920394140084795 19.864857495878706
4.897105633036354 7.747422070534748 20.32661241319297
5.041699160298905 8.560867213601538 20.971546855759804
LINES 1 65
64 0 1 2 3 4 5 6 7 8 9 10 11 12 13 14 15 16 17 18 19 20 21 22 23 24 25 26 27 28 29 30 31 32 33 34 35 36 37 38 39 40 41 42 43 44 45 46 47 48 49 50 51 52 53 54 55 56 57 58 59 60 61 62 63
POINT_DATA 64
SCALARS MaximumInscribedSphereRadius float
LOOKUP_TABLE default
1.5499999523162842
1.1138399839401245
0.9300000071525574
0.9976000189781189
1.187600016593933
1.2392300367355347
1.0591200590133667
1.0773500204086304
1.2385200262069702
1.241260051727295
1.261199951171875
1.2672100067138672
1.2532600164413452
1.2880100011825562
1.5032999515533447
1.8167099952697754
1.5548399686813354
1.23294997215271
1.0805000066757202
1.049149990081787
1.2373900413513184
1.2400000095367432
1.2400000095367432
1.2561299800872803
1.444659948348999
1.4398000240325928
1.261579990386963
1.2668499946594238
1.2497800588607788
1.2400000095367432
1.328819990158081
1.470270037651062
1.3563899993896484
1.2403199672698975
1.2947399616241455
1.466249942779541
1.3385100364685059
1.2400000095367432
1.2400000095367432
1.2400000095367432
1.2534199953079224
1.3819999694824219
1.7530800104141235
1.5171400308609009
1.3086899518966675
1.243749976158142
1.2400000095367432
1.2400000095367432
1.2400000095367432
1.2706199884414673
1.4633100032806396
1.6770199537277222
1.7310899496078491
1.3909499645233154
1.3924599885940552
1.4302500486373901
1.3251500129699707
1.489989995956421
1.3395700454711914
1.2437399625778198
1.2852599620819092
1.8739500045776367
1.9469399452209473
1.5499999523162842
