# vtk DataFile Version 2.0
Vessel Segment
ASCII
DATASET POLYDATA
POINTS 64 float
-2.997979746468015 -17.011198111983013 -2.393012756555015
-2.4747275268788407 -16.3309882170404 -2.970612019372137
-2.044186480819299 -15.750483911090727 -3.6550623337476496
-1.6163590155085759 -15.163168948467966 -4.360518098199317
-1.1741996823719767 -14.530152376834799 -5.0184807298597915
-0.7288126222412984 -13.80072730861207 -5.563500657162911
-0.342584768466261 -12.929685305145272 -5.904840291311172
-0.10438442415549692 -11.948807917414074 -5.9756218572366855
-0.020226062912317985 -10.947871365743298 -5.838976517045619
-0.03182930090219793 -9.95782752260584 -5.618001748921037
-0.11214271955356969 -8.96621583040746 -5.4202651515906
-0.3367143318004331 -7.981055357323948 -5.357083717466386
-0.9209970603196337 -7.167883662253796 -5.456641114574725
-1.8247460870973764 -6.716716875890795 -5.473460704632438
-2.80042920109834 -6.52778852189022 -5.279175458430382
-3.751925460274375 -6.507478061800259 -4.930071533009489
-4.657737146705457 -6.614805422680135 -4.487299457396243
-5.506575876242184 -6.828620063436825 -3.981929337493643
-5.810499710050896 -6.839776418365571 -3.1599257082881835
-4.914514171561885 -6.296989183381444 -2.9953448131429026
-4.034280967629675 -5.798921802530712 -2.9561418861702964
-3.124490526379683 -5.354766504780366 -2.9989145479310384
-2.175740213988519 -5.0124465507841265 -3.10364838805943
-1.183825845172784 -4.822268650206148 -3.1905923133126985
-0.18855292772926943 -4.748593943804587 -3.0326856208957453
0.6284356502214913 -4.53949428922739 -2.4798240451408606
1.1790616512135486 -4.043342664993602 -1.7919191770169969
1.4943080964230002 -3.3032116549874933 -1.1784558155748235
1.5532156469161078 -2.403331575818308 -0.7202888719396093
1.301722842782246 -1.4684596981267297 -0.4281062589176774
0.7456517586115219 -0.6461049815498052 -0.23130698759599844
0.0 0.0 0.0
-0.7776456515007569 0.515966982350011 0.39439331842147757
-1.4227727041252691 0.9699335274615474 1.028061128454111
-1.8293180553113837 1.3830174196431189 1.858395095845843
-2.0305161670934306 1.7337184795207405 2.787850402345707
-2.087816194156944 1.9865783791884981 3.76800318931647
-2.01694565024284 2.095671899713379 4.773040700720463
-1.804864623044159 2.0287728578908295 5.761517113706478
-1.459992405709926 1.8058464426442373 6.68832991261319
-1.026503682830896 1.4790158125505182 7.545022172211721
-0.5540794063793039 1.0871257315449454 8.352802407701567
-0.07696482341300256 0.6469565720077041 9.132447953006215
0.39645343478581246 0.16990071659933043 9.892508660901676
0.8821880339900174 -0.3207903504127218 10.63595029010148
1.3912037057755824 -0.7895963706720079 11.37785079381838
1.9086137412585107 -1.2001252695884037 12.1478018133214
2.399114717158307 -1.5130438019579933 12.978296079678703
2.8143492592095063 -1.666488262377139 13.889601856738858
3.096842896460397 -1.571050842554339 14.856400122295485
3.2199777753044785 -1.1833020703124313 15.78288645274292
3.2258145950049695 -0.5611799885921175 16.582223522638596
3.1738988436934807 0.21865615718178077 17.227486777317818
3.0977595962106297 1.1069692972112652 17.70977744596142
2.9951913783236463 2.0683047703739046 18.01448783296819
2.8272130377744817 3.061934830195138 18.120473541273988
2.537037951430646 4.027736308552525 18.024368586526915
2.099812204671021 4.909822966693334 17.78314369950491
1.542607085726607 5.707740280031545 17.497552446847266
0.9070742526256761 6.4588162433205225 17.25054126223823
0.22746744440794167 7.193956184066345 17.086285491188008
-0.47008433239816283 7.924429440658161 17.016106366239097
-1.1598302315347466 8.640611107890098 17.029706263171036
-1.8743118004925228 9.386070780570737 17.119076189481024
LINES 1 65
64 0 1 2 3 4 5 6 7 8 9 10 11 12 13 14 15 16 17 18 19 20 21 22 23 24 25 26 27 28 29 30 31 32 33 34 35 36 37 38 39 40 41 42 43 44 45 46 47 48 49 50 51 52 53 54 55 56 57 58 59 60 61 62 63
POINT_DATA 64
SCALARS MaximumInscribedSphereRadius float
LOOKUP_TABLE default
1.2400000095367432
1.2400000095367432
1.2593300342559814
1.198330044746399
0.9885479807853699
0.9300000071525574
0.9300000071525574
0.9730470180511475
1.191890001296997
1.4080499410629272
1.463170051574707
1.3538999557495117
1.6890499591827393
1.8476500511169434
1.4204399585723877
1.125309944152832
0.9998350143432617
1.2636899948120117
1.740630030632019
1.6058299541473389
1.5499999523162842
1.5499999523162842
1.5499999523162842
1.3475899696350098
1.4454799890518188
1.5649299621582031
1.6528899669647217
1.843459963798523
1.8600000143051147
1.8600000143051147
1.8600000143051147
1.8292900323867798
1.6227999925613403
1.5499999523162842
1.5499999523162842
1.5613700151443481
1.7453099489212036
1.7561899423599243
1.620650053024292
1.7929699420928955
2.014349937438965
2.063699960708618
1.711169958114624
1.3962299823760986
1.5674200057983398
2.1139800548553467
1.9323899745941162
2.009119987487793
2.160290002822876
2.1727399826049805
2.188839912414551
1.9401600360870361
1.7067400217056274
1.8560800552368164
1.8706400394439697
1.9530400037765503
2.185499906539917
2.3978500366210938
2.356920003890991
2.29790997505188
2.511899948120117
3.223020076751709
3.3598101139068604
2.4800000190734863
