# vtk DataFile Version 2.0
Vessel Segment
ASCII
DATASET POLYDATA
POINTS 64 float
-9.059844119076441 -19.642816449439895 -2.1839029251646696
-8.195975551775666 -19.835314575926954 -2.1342106477476217
-7.010220885299061 -20.04118906668591 -2.09689832339707
-6.06978214805676 -20.088934935465456 -2.1172023002699416
-5.048210082627682 -20.01288791159299 -2.1640827073471183
-4.068880351359234 -19.707611745533058 -2.2156822856205345
-3.259798894500996 -19.108974898352614 -2.160684152705996
-2.6693289857009135 -18.312032857314946 -1.9130171331173103
-2.2508774634394584 -17.498391046142267 -1.4724993344587818
-1.8774541909829718 -16.737316067370624 -0.9136222618979654
-1.480285108724466 -16.039113770873307 -0.29374472794436113
-1.0338628696610137 -15.389900214267765 0.3458916639855915
-0.5297272774718832 -14.76766516083827 0.9691029235018556
0.028539318870318037 -14.144430685576964 1.5435584171851842
0.631044915404162 -13.492638534664902 2.0361243752508718
1.260554869732711 -12.791105064034117 2.4133526253251842
1.891707542832187 -12.030721651671051 2.6473345522288025
2.4960333082186206 -11.219455349723914 2.7327492092606955
3.052945090043163 -10.371577936575642 2.686525291035499
3.550969456747774 -9.499612544894756 2.5386714026202024
3.98423685322706 -8.608671691541474 2.3184018765904
4.343816120342104 -7.698659065433859 2.0487078492660653
4.610518108685821 -6.767304205755084 1.7456391167697176
4.748253655806285 -5.814986669543952 1.4206516748707823
4.699348895527316 -4.8562013866634395 1.0863872148369194
4.42569208943165 -3.931630960861181 0.7678268362386531
3.935959297578081 -3.08416856285306 0.49237396021598584
3.287878537152037 -2.332637962201541 0.27707214943011454
2.538053562616136 -1.665717671980564 0.12262380780665771
1.7260445935140816 -1.0646618046374254 0.02538511592323738
0.875166665329378 -0.5130951701485303 -0.01641097734366637
0.0 0.0 0.0
-0.8902269517766487 0.4810768462228895 0.08548913252223693
-1.78302194811123 0.9293000843903693 0.2603349829519269
-2.660287776552294 1.3356858814238373 0.5656446529237884
-3.4846666371177997 1.6736891442102535 1.081662930798049
-4.065835986645174 1.8220293858095158 1.8911012958285012
-4.246080467212755 1.6937719317959479 2.8942433525988456
-4.060684539580465 1.3308756794356498 3.825301598201972
-3.7042655680503986 0.8472218047652967 4.648791965864997
-3.2845429313441348 0.3068588008980313 5.396040821919593
-2.8326503721389376 -0.26633102129441794 6.101342034341438
-2.369894831198487 -0.8519947083604518 6.788717970682566
-1.9060851380728698 -1.4350711299039387 7.477312952161864
-1.4470258748044098 -2.0010394028762684 8.183377436753233
-0.9977723794854582 -2.533343327798815 8.921254706847565
-0.5634989006733029 -3.0125445802886355 9.703455228338553
-0.15131814287912604 -3.4159860932651243 10.538635934218236
0.2306667900630424 -3.722560564366283 11.427731002595724
0.5747962595190713 -3.9181943537869723 12.362573886758506
0.8771593341686952 -4.001698746075386 13.32792515802748
1.1377354697589825 -3.9829538664644537 14.308742195973894
1.3599685684640277 -3.8777337227326867 15.293419512019877
1.547959407936542 -3.7030354489008372 16.275213014026143
1.7055092786641088 -3.4735536353531486 17.251115307151764
1.834443678484865 -3.2012342737884527 18.21986249992137
1.9335639427473328 -2.894639729971179 19.181952526912774
1.9984515412536756 -2.559113548685681 20.138672496408795
2.0250278743143504 -2.201810656044137 21.08378653887385
1.996138729062023 -1.8187442668360476 22.028594559194715
1.9013620101982303 -1.4144595804429743 22.965527268316176
1.7639313433040642 -1.0302588132386659 23.8160563626796
1.4162622871143138 -0.5211879486509116 24.848043031156315
1.0939825850854863 -0.14240393147485758 25.582938092282934
LINES 1 65
64 0 1 2 3 4 5 6 7 8 9 10 11 12 13 14 15 16 17 18 19 20 21 22 23 24 25 26 27 28 29 30 31 32 33 34 35 36 37 38 39 40 41 42 43 44 45 46 47 48 49 50 51 52 53 54 55 56 57 58 59 60 61 62 63
POINT_DATA 64
SCALARS MaximumInscribedSphereRadius float
LOOKUP_TABLE default
1.2400000095367432
1.2400000095367432
1.2400000095367432
1.254330039024353
1.3101799488067627
1.4550399780273438
1.3634099960327148
1.0797899961471558
0.955187976360321
0.949118971824646
1.0442500114440918
1.2302700281143188
1.3294099569320679
1.320870041847229
1.3121600151062012
1.4146000146865845
1.6671700477600098
1.9188400506973267
2.160209894180298
2.3920600414276123
2.3765199184417725
2.283629894256592
2.166879892349243
2.126699924468994
2.0494000911712646
1.9253300428390503
1.7413500547409058
1.654710054397583
1.5948699712753296
1.5410399436950684
1.4558900594711304
1.3616299629211426
1.4643000364303589
1.7949399948120117
2.3099300861358643
2.219019889831543
1.9906100034713745
1.8600000143051147
1.8600000143051147
1.8600000143051147
1.8913600444793701
1.9886900186538696
2.1086299419403076
2.164109945297241
2.1675000190734863
2.155289888381958
2.0463199615478516
1.9589099884033203
1.9347699880599976
2.0655100345611572
2.137769937515259
2.1700000762939453
2.1700000762939453
2.1700000762939453
2.1700000762939453
2.1700000762939453
2.1700000762939453
2.1700000762939453
2.2136099338531494
2.3064401149749756
2.4241299629211426
2.3921799659729004
2.2935800552368164
2.1700000762939453
