# vtk DataFile Version 2.0
Vessel Segment
ASCII
DATASET POLYDATA
POINTS 64 float
-1.8269471361391285 -13.32927127814251 -1.1526167751897187
-1.2209440231361584 -12.969170274267844 -1.9273592372934052
-0.6444558818560933 -12.554113114801089 -2.5996863786017355
-0.0793873733341697 -12.050550114738982 -3.2797510520060755
0.4128944926852851 -11.46519304963459 -3.946864826482438
0.7888177456459246 -10.790250741125371 -4.603448876768087
0.9932522539585266 -10.01845825826042 -5.227853583212292
0.9764477998695777 -9.148853450171064 -5.746774187163457
0.7685031089449067 -8.205932768796249 -6.052590882926229
0.4934893619515798 -7.232708612699328 -6.122893266408861
0.24414370886713763 -6.251975810155487 -6.051025963226333
0.006592740536463212 -5.269097183054355 -5.968159115988388
-0.35073451061318367 -4.3216533326377276 -6.004818526538921
-1.019008692107915 -3.5973837829471846 -6.219037317706703
-1.94070267731921 -3.2479553912858123 -6.449130070763605
-2.941448994570967 -3.123274567032543 -6.552889307531142
-3.9532369455926997 -3.073719116176773 -6.505127266859431
-4.946525695653544 -3.0187740263337326 -6.307798127516986
-5.893300917526835 -2.907948566036753 -5.961835227192584
-6.7452284245235985 -2.7059199903942734 -5.455939462427207
-7.366967801781355 -2.3768770343119834 -4.727744994386347
-7.0605477394232805 -2.075841365578753 -3.8595656222907984
-6.119043496778411 -2.1445651681062183 -3.4672163218344783
-5.148381524092533 -2.358515806329653 -3.2709083525478753
-4.175161765623529 -2.597251495335517 -3.1131379391430283
-3.194186582874771 -2.749197628017776 -2.9056735178684536
-2.2208515255222676 -2.7518649122301895 -2.621107179608964
-1.2831732178562347 -2.605344021130469 -2.26443478043108
-0.45801267140745655 -2.2448121384795034 -1.8023446205099873
0.05201446857390346 -1.5995821258996077 -1.2186313392338222
0.14924459265222367 -0.8029540622856505 -0.6012280315453961
0.0 0.0 0.0
-0.25125299387617217 0.7794340668532705 0.5988486694215895
-0.5225807841763697 1.5359934815995784 1.2180793964493248
-0.7587975303558729 2.268079080704146 1.8793213885807674
-0.9327110421731062 2.9668309885210027 2.5939033239150135
-1.0547481105996324 3.625228073661315 3.356061073428364
-1.157649311426545 4.243505902191156 4.153892529989095
-1.2676884773565709 4.816156938225162 4.984028985094168
-1.3890452346453885 5.320325268903786 5.855849682508893
-1.506215433086514 5.710870151066341 6.784397122564209
-1.585394163591554 5.921769824347517 7.772612237310683
-1.5927309713625564 5.909483801375415 8.785970681298693
-1.525171157610626 5.707715583067292 9.777454844005174
-1.403590778743275 5.392612994660808 10.734026736299787
-1.24666705089196 5.025247695534167 11.666603342749855
-1.0595888430430314 4.639713447723039 12.586277161491031
-0.8347573299334584 4.246431268106008 13.49403757885427
-0.5582224591269007 3.838120519942037 14.380661759566586
-0.2261373397475945 3.4049463203391364 15.235838072006773
0.14836727317857712 2.9506011552977283 16.06209330305129
0.5434928286557568 2.4986591163291543 16.880075536467857
0.9416252806585657 2.0843736836073155 17.716145130585645
1.332962903377778 1.7415059143432992 18.586986718686976
1.7103762334433357 1.499925337368733 19.496972350355605
2.0655793920842176 1.3918449557311683 20.44062476910535
2.3857394260148035 1.4626312547212827 21.399888070143465
2.648201471768984 1.7731619199868558 22.327621696567572
2.8284042640116405 2.34755477236138 23.14211057677966
2.9302758028453053 3.111735553779291 23.800158190176916
2.9938119454161116 3.9615714064080625 24.351080136726765
3.0913947225613394 4.801451905761775 24.91388597823607
3.331858727241267 5.440513502452295 25.625338821545867
3.816952593623425 5.516892619924356 26.539178033152194
LINES 1 65
64 0 1 2 3 4 5 6 7 8 9 10 11 12 13 14 15 16 17 18 19 20 21 22 23 24 25 26 27 28 29 30 31 32 33 34 35 36 37 38 39 40 41 42 43 44 45 46 47 48 49 50 51 52 53 54 55 56 57 58 59 60 61 62 63
POINT_DATA 64
SCALARS MaximumInscribedSphereRadius float
LOOKUP_TABLE default
0.9300000071525574
1.1803699731826782
1.2614699602127075
1.212649941444397
1.0112299919128418
1.0604699850082397
1.229490041732788
1.2559700012207031
1.4869999885559082
1.7314399480819702
1.7258199453353882
1.3322800397872925
1.2400000095367432
1.4613900184631348
1.7154200077056885
1.6989200115203857
1.3869800567626953
1.5360100269317627
1.8622499704360962
1.876389980316162
1.7447400093078613
1.8844399452209473
2.3574600219726562
2.289210081100464
1.90556001663208
1.7670999765396118
2.1700000762939453
2.1700000762939453
2.198699951171875
2.399090051651001
2.252239942550659
2.1700000762939453
2.1700000762939453
2.1606600284576416
2.016540050506592
1.9371299743652344
2.09306001663208
1.9784400463104248
1.8600000143051147
1.9220099449157715
2.213710069656372
2.1230199337005615
1.854889988899231
1.852180004119873
1.8600000143051147
1.8658000230789185
1.916409969329834
2.21560001373291
2.4800000190734863
2.4800000190734863
2.4800000190734863
2.350409984588623
2.1919798851013184
2.1702098846435547
2.1827499866485596
2.2349300384521484
2.3458099365234375
2.440609931945801
2.4800000190734863
2.4264299869537354
2.2248001098632812
2.3364601135253906
2.5754001140594482
2.7899999618530273
