# vtk DataFile Version 2.0
Vessel Segment
ASCII
DATASET POLYDATA
POINTS 64 float
3.652275699250218 -13.185242177184515 -1.6005598239024739
3.260844539086527 -12.861962499521113 -2.5134858572759904
2.870620767979514 -12.45629609345659 -3.308880813423416
2.441321049155359 -11.912928214494512 -4.066534034304874
2.009470888879722 -11.233108220057645 -4.678748083793814
1.5884783724648364 -10.42040141433972 -5.115730835561205
1.2005490622249293 -9.517265621751292 -5.365449780799372
0.8547417524405485 -8.56951021193509 -5.471517374915909
0.5453160512745919 -7.603767649461594 -5.503015535221523
0.2546216841076577 -6.631946304949132 -5.523269090746495
-0.047620238167461575 -5.66533588120397 -5.5846905769398
-0.41991783419625117 -4.733860159897077 -5.73567775560461
-1.016074850733241 -3.9572919213595865 -5.998375475155699
-1.9661332811225052 -3.7439033340459007 -6.189159527428936
-2.908499088765438 -4.1146032487558175 -6.06829310777937
-3.6974572321182464 -4.65548088098327 -5.734285327574786
-4.372623194957294 -5.243871525055822 -5.2579897538827876
-4.940358429618946 -5.8338666460249415 -4.659384356649835
-5.390598148656479 -6.391657664418048 -3.9415672832750728
-5.691797755050969 -6.867837765612857 -3.0994640155005113
-5.774507261350884 -7.1695930447792175 -2.1362841629190332
-5.413420431641088 -6.9937492576399265 -1.2173517717162872
-4.703623035110965 -6.3063853239182945 -0.9947923467770952
-4.015436790846454 -5.597202303851327 -1.2081031160651858
-3.3339065677018467 -4.921606390080112 -1.5395884792043673
-2.6362327338123204 -4.263368124912555 -1.8698667989065587
-1.9153347145846948 -3.591135067400542 -2.109451043027582
-1.1984398872858282 -2.876459798456896 -2.1681208030712438
-0.5640378484667156 -2.1126473635001313 -1.9659893727547528
-0.11982691029448832 -1.3376542724358973 -1.4882045164393014
0.06830396618829619 -0.6159343349005143 -0.8021649766128752
0.0 0.0 0.0
-0.2856940229404697 0.481029553258689 0.8455653503913806
-0.7379921762087066 0.8224630544018268 1.686583315798857
-1.307422822700539 1.0445668580087475 2.496064395661082
-1.9528199772055277 1.189647230631829 3.2653550727229605
-2.6421647661085186 1.3144281607519672 3.9992995028491034
-3.3449513161066977 1.4845955338762897 4.710838451103236
-4.019644997031912 1.7628432700361927 5.415298245535868
-4.610328204555465 2.179715043798531 6.126611611052379
-5.0660980988196105 2.709372875904932 6.861741262897984
-5.3560739952405845 3.2852111936418082 7.644569692495143
-5.457835838590047 3.823911987433294 8.497573216793656
-5.34692521340572 4.232677017948656 9.418418752959353
-5.01558604268488 4.430230233097733 10.355383833713564
-4.499977239426421 4.398096538444763 11.227491736518651
-3.8630338024903215 4.186838525685697 11.987860553790494
-3.1554906930214375 3.866259047685665 12.640298277674605
-2.404600957247833 3.4936544618239256 13.211812181830217
-1.6210491816969894 3.1135174775381844 13.732266014914245
-0.8056214183712566 2.7666739827414055 14.226349546182119
0.04513612460774643 2.499144567045464 14.709921789559518
0.9311359306154218 2.3637462331422245 15.18466637264338
1.8388856723738884 2.395856390920874 15.635918968548243
2.746172336940039 2.5713936360826435 16.05438412339551
3.6411396273104057 2.8171292850370055 16.46450888614495
4.516127531195527 3.0565333134655264 16.918694347332007
5.348127027560183 3.2474453342778573 17.466655413055122
6.100624178212647 3.400519356183378 18.129346824513437
6.74121157721926 3.572735228713412 18.896869537802946
7.238922569448686 3.8456255639794423 19.735494182596067
7.547786995817386 4.323581233446893 20.585437284906842
7.649370054534234 4.973940337473117 21.305987239377412
7.556248295119355 5.838262675123637 21.88380056694882
LINES 1 65
64 0 1 2 3 4 5 6 7 8 9 10 11 12 13 14 15 16 17 18 19 20 21 22 23 24 25 26 27 28 29 30 31 32 33 34 35 36 37 38 39 40 41 42 43 44 45 46 47 48 49 50 51 52 53 54 55 56 57 58 59 60 61 62 63
POINT_DATA 64
SCALARS MaximumInscribedSphereRadius float
LOOKUP_TABLE default
1.2400000095367432
1.2400000095367432
1.2400000095367432
1.2400000095367432
1.2400000095367432
1.2400000095367432
1.239989995956421
1.2206699848175049
1.1496100425720215
1.156290054321289
1.2277300357818604
1.4125100374221802
1.5473400354385376
1.2304600477218628
0.9013500213623047
1.1605000495910645
1.1707500219345093
1.0613499879837036
1.2318300008773804
1.4882500171661377
1.5499999523162842
1.7003400325775146
1.81358003616333
1.6181700229644775
1.2559599876403809
1.3443599939346313
1.5495500564575195
1.5420500040054321
1.4513800144195557
1.2657899856567383
1.0584100484848022
1.082610011100769
1.4072799682617188
1.5499999523162842
1.567270040512085
1.6825200319290161
1.8454300165176392
1.8600000143051147
1.8600000143051147
1.85971999168396
1.664330005645752
1.2976499795913696
1.560979962348938
1.7691600322723389
1.4349199533462524
1.6245800256729126
2.134000062942505
2.0590600967407227
1.8540600538253784
1.5261000394821167
1.3374700546264648
1.4452799558639526
1.7225099802017212
2.0905299186706543
2.1700000762939453
2.1763999462127686
2.190999984741211
2.1947999000549316
2.153249979019165
2.0278799533843994
2.0422799587249756
2.078939914703369
1.8411099910736084
1.5499999523162842
