# vtk DataFile Version 2.0
Vessel Segment
ASCII
DATASET POLYDATA
POINTS 64 float
-8.407570794337374 -11.93392703168819 -2.6871000675178633
-7.454905665623923 -11.567645744591124 -2.8960945629448376
-6.554729746305778 -11.336115423326763 -3.1986194633633245
-5.6117806593055715 -11.148857728725554 -3.560165938968656
-4.684979442373946 -11.000967409384959 -3.9373962818643684
-3.7494141471033795 -10.8538640547217 -4.303105207072208
-2.803108919284762 -10.674106383907688 -4.6213321889811
-1.8480815785149367 -10.410312112651976 -4.838555822845567
-0.9243736506019223 -9.995265720117128 -4.8800804129016475
-0.12119529061367054 -9.4003174897495 -4.712558188852857
0.5186819091979056 -8.672459456675519 -4.412760554418058
1.0329412377672835 -7.860390258849585 -4.08837349851914
1.4610762530237034 -6.98292501738518 -3.8129821678039733
1.8149601410531087 -6.048607489749401 -3.637590637584556
2.0795544047430004 -5.070274490758098 -3.5976707645890107
2.217794517612329 -4.071752829026314 -3.7086746988202206
2.1784813552682576 -3.0903020261054936 -3.9603384316287804
1.9156853869966506 -2.17420491451045 -4.306183374209212
1.4216150210404284 -1.365918405879825 -4.6675376161567685
0.7401207175583043 -0.6776885085702442 -4.968168844135062
-0.06459889471894735 -0.09166683478874832 -5.162545745096587
-0.9388326785400026 0.41830344021524296 -5.230328886520828
-1.843338255871854 0.8712204308548533 -5.15629114183944
-2.7427160156654637 1.272919428018049 -4.912605692925326
-3.5801330484735154 1.6032171185416164 -4.452090330370087
-4.161191571694544 1.7409023820483904 -3.6345499422126655
-3.9759675336986318 1.4852106261619082 -2.6773584209724266
-3.343792533102759 1.1044293526693352 -1.9841677194556118
-2.5738985426740997 0.7395110985792719 -1.4335514279893402
-1.7387470682440511 0.4219286167840587 -0.9529261286657703
-0.8716942869881749 0.1695657356137289 -0.4905045111213014
0.0 0.0 0.0
0.8345531412430599 -0.06997726499260867 0.5722332830161974
1.5644652194171158 -0.03433936587054769 1.275208058353618
2.1231762358325015 0.0869698571929346 2.1126166451759127
2.503110621537609 0.2654536069711376 3.0360451363577767
2.7426314165244925 0.4925675099144704 3.9952609844020937
2.881823649609477 0.7791963010496067 4.95845634529767
2.9515419197627635 1.1430286353314523 5.902829584919568
2.9752662345882164 1.5987552908996743 6.808919761893741
2.971081192679235 2.1443621317705928 7.664182300972043
2.948422559491557 2.7555687887446494 8.47363000073835
2.9066123525769867 3.394728740122909 9.260555391047856
2.8366363786811952 4.0217041229764785 10.055087062171356
2.722828203413804 4.595247182776717 10.884118384781893
2.545514068129086 5.0693832834155925 11.763137535826186
2.287220758738101 5.393002441022498 12.688942952324014
1.9433330119848877 5.523814492072708 13.633892515242161
1.5309175395768744 5.452737486924539 14.557622623978936
1.0815713198428107 5.208199405805364 15.43355520811601
0.6276251769871315 4.834806597556511 16.260424138256163
0.19524419494990772 4.373779344522204 17.053970141025022
-0.19396259984734307 3.8566247004649896 17.83526718615853
-0.5212575957088547 3.3075074353632363 18.623104742323427
-0.77152663048294 2.7464817648666977 19.4305052474673
-0.9349952164972177 2.1923996763452993 20.26447689550941
-1.0086868676837182 1.665231420200123 21.128068248426953
-0.9975906169731729 1.1877889639673551 22.02311324772976
-0.9150485257071888 0.788201476345528 22.951909124157616
-0.781920204258555 0.5038271576745555 23.91684862855428
-0.625298441531759 0.37837669546142916 24.908675477231274
-0.47474174128119134 0.47167773516024203 25.91839595584374
-0.358705493568914 0.7648003998914933 26.84418712821859
-0.2848778909349744 1.306322310433742 27.730926989021455
LINES 1 65
64 0 1 2 3 4 5 6 7 8 9 10 11 12 13 14 15 16 17 18 19 20 21 22 23 24 25 26 27 28 29 30 31 32 33 34 35 36 37 38 39 40 41 42 43 44 45 46 47 48 49 50 51 52 53 54 55 56 57 58 59 60 61 62 63
POINT_DATA 64
SCALARS MaximumInscribedSphereRadius float
LOOKUP_TABLE default
0.6200000047683716
0.9528030157089233
1.1351799964904785
0.8985419869422913
0.7945749759674072
1.144129991531372
1.5324100255966187
1.5499999523162842
1.5499999523162842
1.5499999523162842
1.5499999523162842
1.4746099710464478
1.3156399726867676
1.2861000299453735
1.3533200025558472
1.3187299966812134
1.3645399808883667
1.6790499687194824
1.649459958076477
1.333549976348877
1.456089973449707
1.6257799863815308
1.667799949645996
1.650149941444397
1.587839961051941
1.8510099649429321
2.0651800632476807
1.8590600490570068
1.6830899715423584
1.6808500289916992
1.9579499959945679
2.180919885635376
2.1674299240112305
2.042520046234131
1.8923699855804443
1.8600000143051147
1.8600000143051147
1.8600000143051147
1.74413001537323
1.649440050125122
1.960860013961792
2.2771899700164795
2.0454699993133545
1.6326500177383423
1.8676999807357788
2.1261401176452637
1.820539951324463
1.6967899799346924
1.9842599630355835
2.160680055618286
2.1892600059509277
2.3719100952148438
2.625349998474121
2.509500026702881
2.11722993850708
2.167680025100708
2.4504001140594482
2.633970022201538
2.7211201190948486
2.388629913330078
2.2584500312805176
2.4218900203704834
2.2039599418640137
1.8600000143051147
