# vtk DataFile Version 2.0
Vessel Segment
ASCII
DATASET POLYDATA
POINTS 64 float
-0.9411649287596753 -12.357565581612949 -2.805677852535856
-0.9176199272823388 -11.951580141990252 -3.76906196979888
-0.8803653976550809 -11.4222537602838 -4.594337198614108
-0.8045260756507693 -10.654075018988385 -5.248991899272192
-0.6566764290434532 -9.678140319663976 -5.4484653037721795
-0.4439608836913362 -8.717860610682761 -5.206904074514851
-0.18790428649466645 -7.833464935186844 -4.781286535524199
0.09636207971236749 -6.975959533494143 -4.31942693004184
0.3755699538958986 -6.090381249497598 -3.911142307928434
0.5579421032071653 -5.126661079556642 -3.658861269335383
0.4567329174763338 -4.1217723875306085 -3.643838756873711
0.013360520091061203 -3.218286609327979 -3.7575453297407804
-0.6247914517360235 -2.432998750366355 -3.821132330352805
-1.3446719765687487 -1.7216133178453423 -3.7577570404813265
-2.092421624891884 -1.0675271963076598 -3.5540021702942015
-2.847044031129849 -0.4752707541838486 -3.22469303062474
-3.610104774393948 0.039389291143133935 -2.7984851477620727
-4.398550262185185 0.4503150773728115 -2.3108994182076676
-5.242851578651756 0.7067858800291973 -1.8114374632380126
-6.179806337234946 0.6874187656162309 -1.4102765334062042
-6.878515780286765 0.059255973974521516 -1.596777700545541
-6.515782387681467 -0.5665129231614429 -2.2902640266196324
-5.7800972052649024 -0.9193434857794686 -2.884177827570005
-4.911268640170457 -1.1407776680896045 -3.358113661956071
-3.969645330031286 -1.284655941583138 -3.7060464114245963
-2.9778234382308537 -1.372092405307611 -3.8969247887158205
-1.9662806609184573 -1.4041628071361159 -3.8561757294066066
-1.037370312168136 -1.3642524544885801 -3.461684837335351
-0.3919811710143805 -1.2258240035513648 -2.6976432174061777
-0.07756686118214053 -0.962579338604188 -1.7716999413907113
0.01894343255620783 -0.5531150310171706 -0.8496689775089542
0.0 0.0 0.0
-0.06727153080903914 0.6622851920695342 0.7652553631384424
-0.14744309215419696 1.388742864342077 1.46884408465506
-0.22820639053738842 2.1354138529139037 2.151141033542562
-0.3117786638737785 2.861359658035886 2.854860267184535
-0.4043065413775371 3.5303908155752888 3.611681991641503
-0.5064862226001619 4.110629025379315 4.437276291003576
-0.6095713844745129 4.571389069179857 5.334818349412489
-0.6924194618522904 4.882205335403786 6.296372759466264
-0.7245489084952847 5.01618033059757 7.300696818134941
-0.679768115292535 4.958646960732418 8.31172794575038
-0.5526128250497163 4.7199137465607555 9.288798229939841
-0.3611022194733176 4.335511128107336 10.207525801341635
-0.13235847600332334 3.8504487822242197 11.068563885361735
0.10957367414982266 3.3049078440614954 11.88903735643906
0.3486806828575414 2.731541372883975 12.691228315938718
0.5783193548780182 2.1547806055467356 13.493742696948809
0.80128706475805 1.591758387920248 14.307803316694937
1.0264080747603965 1.0523091690006257 15.137074313570588
1.2614274329714283 0.5437015784676104 15.98293161738067
1.5055150817569998 0.07841593486018111 16.85080277235151
1.7462660314469234 -0.3154458946260303 17.754025277667118
1.9610879614243704 -0.583538438934751 18.708036031755608
2.122408947470922 -0.6400344400204816 19.706516474119237
2.2209680362613176 -0.42133633913646595 20.6905174960015
2.2857686859424957 0.03412845768133743 21.593755154546464
2.3542799584581897 0.6419876177155557 22.4027386989451
2.4481594104211335 1.3443397918120559 23.128398029922558
2.576006338521128 2.1135505949860462 23.777089449062256
2.737526443375848 2.9400385702053193 24.343702732081876
2.9246644204429706 3.821061791225815 24.812583828604748
3.1180452364858273 4.7196341214039945 25.1576896872795
3.318895556384623 5.7242329449004306 25.366161711562164
LINES 1 65
64 0 1 2 3 4 5 6 7 8 9 10 11 12 13 14 15 16 17 18 19 20 21 22 23 24 25 26 27 28 29 30 31 32 33 34 35 36 37 38 39 40 41 42 43 44 45 46 47 48 49 50 51 52 53 54 55 56 57 58 59 60 61 62 63
POINT_DATA 64
SCALARS MaximumInscribedSphereRadius float
LOOKUP_TABLE default
0.9796000123023987
1.2151000499725342
1.5031800270080566
1.1886299848556519
1.1714400053024292
1.5459599494934082
1.5499999523162842
1.4172199964523315
1.3211100101470947
1.5194599628448486
1.3686100244522095
1.5014100074768066
1.634809970855713
1.5693600177764893
1.870859980583191
2.1342499256134033
2.1684000492095947
1.9436999559402466
1.3461999893188477
1.2763500213623047
1.8205000162124634
1.5890400409698486
1.358530044555664
1.408519983291626
1.7911900281906128
1.8728400468826294
1.8612200021743774
1.88264000415802
2.3043999671936035
2.0768799781799316
2.0939300060272217
2.376199960708618
2.0402801036834717
1.8600000143051147
1.8789299726486206
2.055109977722168
2.1700000762939453
2.1268200874328613
1.8195199966430664
1.8014800548553467
2.5451600551605225
2.1020400524139404
1.6727999448776245
1.6096899509429932
1.7802400588989258
1.978279948234558
2.0533699989318848
2.1461100578308105
2.219789981842041
2.1909799575805664
2.1400399208068848
2.1138200759887695
2.323590040206909
2.5687100887298584
2.7464599609375
2.1842100620269775
2.072200059890747
2.355070114135742
3.142090082168579
3.0219900608062744
2.554650068283081
2.4800000190734863
2.4800000190734863
2.4800000190734863
