# vtk DataFile Version 2.0
Vessel Segment
ASCII
DATASET POLYDATA
POINTS 64 float
-7.936907401444342 -16.22755543416255 -1.7579305264113998
-6.994342643708168 -16.547165779116206 -2.0843530395391596
-6.084293615517572 -16.623468171015073 -2.424249678872832
-5.129330277485926 -16.57091506161647 -2.7846746636099486
-4.192221453711026 -16.40123155868667 -3.1327853833087667
-3.268461408691285 -16.137901024377804 -3.4586638372241545
-2.361931642968283 -15.786382159545083 -3.748130562620619
-1.4817662712302277 -15.339930039022653 -3.982437664112077
-0.6496347083226242 -14.782118202642971 -4.140538108987091
0.09599941955570833 -14.098649627513154 -4.211801656633941
0.7139156289675167 -13.294629165455492 -4.217436060110209
1.1840622642797645 -12.396058433323804 -4.212551789055147
1.5120066465002961 -11.437841134069307 -4.265333470812711
1.710838851162217 -10.457256676585486 -4.430434219273769
1.7820363041777094 -9.489734684985564 -4.725596868154809
1.715575660131866 -8.559644135544008 -5.124398948440922
1.4976264266916959 -7.676981910777953 -5.573794044069814
1.116117045472868 -6.844011006254177 -6.00839754656909
0.5680747946263383 -6.066748709900671 -6.359809309325827
-0.12916583300262588 -5.360156914044629 -6.5652307023612275
-0.9320198890936989 -4.741487292580779 -6.58168349880028
-1.7797195827005428 -4.217702348399158 -6.395097799059517
-2.608913426653398 -3.78273908985105 -6.0063020341433795
-3.34391947963534 -3.42150041210393 -5.409635163450898
-3.8402553760748503 -3.110430681952964 -4.584121592681423
-3.818131489664528 -2.821088293005651 -3.6196687205836016
-3.28572610693829 -2.5240118431588248 -2.8109664744951233
-2.5588031387398913 -2.179922875418758 -2.193515729652713
-1.8008800697597707 -1.7629081951852974 -1.6634483322160651
-1.0869981853968467 -1.2601845171683888 -1.1470851971467666
-0.4725142070143133 -0.667642587181857 -0.5995180878613543
0.0 0.0 0.0
0.3253365847202845 0.707163512878651 0.6502421803301764
0.5324202318366128 1.4172823072396392 1.3443816116125673
0.6582387655606604 2.1043644597116837 2.080188584586883
0.7336781724984761 2.7494283258339696 2.859534797873546
0.780524140806051 3.3355220758667605 3.6862095201233176
0.810670175331616 3.843327982804763 4.563927340878109
0.8261576436178267 4.248957200888564 5.493509282716246
0.8194830738398515 4.526495675239125 6.4690214913428115
0.7783824630538021 4.655563626807951 7.474093193115449
0.6949432697821432 4.630837656974457 8.484551124609553
0.5731718005485366 4.469366338319659 9.478518359357004
0.42687807688195994 4.201821470973352 10.446068185810944
0.2725802179031435 3.856644594968288 11.387508873293644
0.12380214265017814 3.452852555678571 12.306260777280425
-0.009540010496400228 3.001287112219913 13.204953371475664
-0.1207677067115584 2.5099135822211345 14.085589621215226
-0.20653330777855708 1.9879541125698041 14.95139476982811
-0.2670100717904793 1.4503601670516133 15.809751283621736
-0.30396109046471165 0.9171785718116064 16.672156801794504
-0.3185281859109343 0.4149263410852687 17.55351259847028
-0.30967336838017173 -0.01614008744260621 18.47175842449984
-0.2729992056439994 -0.3114411309441585 19.441177300194436
-0.20068089201166292 -0.3721500450026688 20.449992189488956
-0.0884622978751721 -0.11117989433882652 21.421698419088045
0.05455463314669766 0.43802996997789195 22.261182298151724
0.21514230346893892 1.1571784569581367 22.95804818226443
0.38563242770959677 1.9591421785442837 23.555610463918224
0.5618091536913753 2.798122879075409 24.097848014751598
0.740219619690396 3.647458448248321 24.622456314630252
0.9176027741549302 4.488807618875031 25.175895355302206
1.079389313980218 5.255146280388694 25.756057472841963
1.2190144760237702 5.924491962727693 26.549215227493843
LINES 1 65
64 0 1 2 3 4 5 6 7 8 9 10 11 12 13 14 15 16 17 18 19 20 21 22 23 24 25 26 27 28 29 30 31 32 33 34 35 36 37 38 39 40 41 42 43 44 45 46 47 48 49 50 51 52 53 54 55 56 57 58 59 60 61 62 63
POINT_DATA 64
SCALARS MaximumInscribedSphereRadius float
LOOKUP_TABLE default
1.5809999704360962
1.3500100374221802
1.2400000095367432
1.2400000095367432
1.2400000095367432
1.1860699653625488
1.010849952697754
1.149090051651001
1.5184600353240967
1.7620600461959839
1.6675399541854858
1.3175300359725952
0.9011660218238831
1.0561200380325317
1.4884300231933594
1.7493599653244019
1.6960200071334839
1.5290199518203735
1.426900029182434
1.388800024986267
1.3717299699783325
1.2949800491333008
1.1624900102615356
1.0372899770736694
1.3628499507904053
1.3979500532150269
1.3251999616622925
1.4184900522232056
1.5233900547027588
1.5499999523162842
1.5168800354003906
1.4233399629592896
1.4558500051498413
1.4936599731445312
1.353790044784546
1.3838800191879272
1.7426700592041016
1.9999500513076782
2.1157801151275635
1.9667199850082397
2.106070041656494
2.4728200435638428
2.702120065689087
2.489680051803589
2.0609500408172607
1.9035099744796753
2.032949924468994
2.372159957885742
2.4800000190734863
2.4418299198150635
2.271430015563965
2.377500057220459
2.7304999828338623
2.403749942779541
2.063810110092163
1.8394299745559692
1.6276400089263916
1.7892999649047852
2.060580015182495
1.8663699626922607
1.5766500234603882
1.752310037612915
1.8530499935150146
1.8600000143051147
