# vtk DataFile Version 2.0
Vessel Segment
ASCII
DATASET POLYDATA
POINTS 64 float
-7.974304958851511 -13.488485672156186 -0.09056148136767278
-6.9455389664220135 -13.641531398294775 -0.2214741351008658
-6.008306692264379 -13.76236867411237 -0.4632219869372636
-5.046165733689595 -13.842568583408637 -0.7911667167725343
-4.110163040520044 -13.85305380620969 -1.18293677758663
-3.1991647462656547 -13.772943725913697 -1.6214223453929055
-2.318049212624236 -13.579461155962964 -2.085116272958194
-1.4758792930726783 -13.246497901720357 -2.5416032717746284
-0.6894348373398752 -12.74705723458244 -2.941386510941931
0.012870317304548715 -12.0726670712768 -3.2226167579109517
0.6041080323833576 -11.259799291705615 -3.354296318710176
1.0867872650695076 -10.368006055414364 -3.378648730528278
1.4879988541628908 -9.436185627922715 -3.3796206703029004
1.8322128652398644 -8.484631685963285 -3.4499985443265775
2.12164741398773 -7.54004128686257 -3.677589818532868
2.3275896713876842 -6.643861084584344 -4.103900666265891
2.4103026277526967 -5.82695946981524 -4.698449431620244
2.3355825666507077 -5.087989030596304 -5.388678570268244
2.061551366429614 -4.403882759675863 -6.084646598119272
1.5356893790113093 -3.763099630837029 -6.666207426129583
0.7598531869462029 -3.195086095652025 -6.979713371584339
-0.14407698896202406 -2.7399989848104647 -6.955082500856173
-1.0477252249506332 -2.390342228056738 -6.657650458092392
-1.8878900475427403 -2.114977627419447 -6.161466466223188
-2.613490747437693 -1.8883667029766447 -5.491062365968919
-3.103254042931498 -1.6898111074012103 -4.627526074183384
-3.1083972274522145 -1.501525164593585 -3.637798575977107
-2.6449687989381383 -1.3070259231575125 -2.758882463959451
-1.9862385725362397 -1.0806589655215981 -2.021781230483992
-1.2790823790917834 -0.7987566503221157 -1.351138815551716
-0.5971030361438491 -0.4428237739981486 -0.6898824442261929
0.0 0.0 0.0
0.463537691786739 0.5239904168846864 0.7341419420371248
0.780822526645942 1.1003881035750858 1.505959099917201
0.9730022368054109 1.694268923062973 2.3054847721529814
1.069422910602975 2.2734588454598166 3.13273261621561
1.0886931288600066 2.8054126497121294 3.996277800529488
1.0373133966088053 3.2525419055824485 4.905182210936722
0.9157558981975606 3.572654104149584 5.859666049366389
0.728147346547897 3.7296621255951963 6.843690660283168
0.49069405064123167 3.712141418014551 7.829395233284456
0.2305408501709822 3.5433388474817784 8.79509049121073
-0.024701170053232153 3.2664514652467407 9.737068083804349
-0.25421719881564353 2.921726354855381 10.66322841496941
-0.44623298238695047 2.534259550723507 11.581003407985207
-0.5958042187190912 2.111108218058321 12.490880482928999
-0.7045654386952349 1.6452520207353727 13.385534174491317
-0.780274360682286 1.1260994640879152 14.253858416369415
-0.8340760279238865 0.5581919729631076 15.092887607003822
-0.8750418780290254 -0.02763003516458861 15.920220210771888
-0.9032512323429511 -0.5785664511609742 16.771611134454464
-0.9095555326898386 -1.0286637508764866 17.680405240169026
-0.8790614899468953 -1.309750764697587 18.65399187543881
-0.7990445221261604 -1.377876758323085 19.662093616710884
-0.6656504966128827 -1.228646195623551 20.655921675267898
-0.483314756855215 -0.8892396439853422 21.593755782188573
-0.2608106374348871 -0.4027177908410732 22.455320770410328
-0.01029614968515114 0.1854172229399361 23.24302928131427
0.2502977334386528 0.8360639419644104 23.976588705637415
0.4936205652200096 1.5206816314412641 24.68448482331358
0.6831388883487975 2.220627803875847 25.394390510623573
0.776604100586863 2.9220595456655545 26.128098019534416
0.7508887344797879 3.575810841719044 26.851797051630935
0.5594248392483898 4.233320393281126 27.64532082535797
LINES 1 65
64 0 1 2 3 4 5 6 7 8 9 10 11 12 13 14 15 16 17 18 19 20 21 22 23 24 25 26 27 28 29 30 31 32 33 34 35 36 37 38 39 40 41 42 43 44 45 46 47 48 49 50 51 52 53 54 55 56 57 58 59 60 61 62 63
POINT_DATA 64
SCALARS MaximumInscribedSphereRadius float
LOOKUP_TABLE default
0.9300000071525574
0.9684789776802063
1.0794399976730347
1.2396199703216553
1.2400000095367432
1.1429400444030762
0.9684370160102844
1.1239999532699585
1.1240899562835693
0.9583889842033386
1.1804699897766113
1.3271199464797974
1.2409600019454956
1.0394400358200073
1.214210033416748
1.4330999851226807
1.5587600469589233
1.592579960823059
1.73294997215271
1.6820299625396729
1.629140019416809
1.7570300102233887
1.4839999675750732
1.3147300481796265
1.494789958000183
1.5499999523162842
1.7340199947357178
1.8847999572753906
1.7816799879074097
1.452239990234375
1.6969900131225586
2.068459987640381
1.90215003490448
1.6864299774169922
1.63850998878479
1.8102600574493408
1.8600000143051147
1.9386299848556519
2.1203699111938477
2.1700000762939453
2.083889961242676
1.9754400253295898
2.2276599407196045
2.167259931564331
1.678279995918274
1.5695799589157104
1.8934999704360962
2.39067006111145
2.2757699489593506
2.3009400367736816
2.4596800804138184
2.4800000190734863
2.5681700706481934
2.4723000526428223
2.012160062789917
2.279900074005127
2.5695700645446777
2.7744998931884766
2.8324100971221924
2.742259979248047
2.490299940109253
2.482840061187744
2.1615500450134277
1.5499999523162842
